data_1_NAHCIJ
_chemical_name_common		'acetylene clathrate'
_chemical_formula_structural	'(C2H2)7.2(H2O)46'
_chemical_formula_sum		'Ar1 B2'
_citation_special_details	'original source structure doi: 10.1021/ja049247c'
;
File: NAHCIJ.cif.
;
_cell_length_a			8.81024
_cell_length_b			8.81024
_cell_length_c			8.81024
_cell_angle_alpha		90.00000
_cell_angle_beta		90.00000
_cell_angle_gamma		90.00000
_cell_volume			683.85422
_cell_formula_units_Z		46
_symmetry_space_group_name_H-M	'P 1'
_symmetry_Int_Tables_number	1
loop_
_symmetry_equiv_pos_site_id
_symmetry_equiv_pos_as_xyz
1 x,y,z
loop_
_atom_site_label
_atom_site_type_symbol
_atom_site_symmetry_multiplicity
_atom_site_fract_x
_atom_site_fract_y
_atom_site_fract_z
_atom_site_occupancy
Ar1 Ar 1 0.00000 0.30797 0.11699 1.0000
Ar2 Ar 1 0.00000 0.69203 0.88301 1.0000
Ar3 Ar 1 0.00000 0.69203 0.11699 1.0000
Ar4 Ar 1 0.00000 0.30797 0.88301 1.0000
Ar5 Ar 1 0.11699 0.00000 0.30797 1.0000
Ar6 Ar 1 0.88301 0.00000 0.69203 1.0000
Ar7 Ar 1 0.11699 0.00000 0.69203 1.0000
Ar8 Ar 1 0.88301 0.00000 0.30797 1.0000
Ar9 Ar 1 0.30797 0.11699 0.00000 1.0000
Ar10 Ar 1 0.69203 0.88301 0.00000 1.0000
Ar11 Ar 1 0.69203 0.11699 0.00000 1.0000
Ar12 Ar 1 0.30797 0.88301 0.00000 1.0000
Ar13 Ar 1 0.80797 0.50000 0.38301 1.0000
Ar14 Ar 1 0.19203 0.50000 0.61699 1.0000
Ar15 Ar 1 0.19203 0.50000 0.38301 1.0000
Ar16 Ar 1 0.80797 0.50000 0.61699 1.0000
Ar17 Ar 1 0.50000 0.61699 0.19203 1.0000
Ar18 Ar 1 0.50000 0.38301 0.80797 1.0000
Ar19 Ar 1 0.50000 0.61699 0.80797 1.0000
Ar20 Ar 1 0.50000 0.38301 0.19203 1.0000
Ar21 Ar 1 0.61699 0.80797 0.50000 1.0000
Ar22 Ar 1 0.38301 0.19203 0.50000 1.0000
Ar23 Ar 1 0.61699 0.19203 0.50000 1.0000
Ar24 Ar 1 0.38301 0.80797 0.50000 1.0000
Ar25 Ar 1 0.18388 0.18388 0.18388 1.0000
Ar26 Ar 1 0.81612 0.81612 0.81612 1.0000
Ar27 Ar 1 0.81612 0.81612 0.18388 1.0000
Ar28 Ar 1 0.18388 0.18388 0.81612 1.0000
Ar29 Ar 1 0.81612 0.18388 0.81612 1.0000
Ar30 Ar 1 0.18388 0.81612 0.18388 1.0000
Ar31 Ar 1 0.18388 0.81612 0.81612 1.0000
Ar32 Ar 1 0.81612 0.18388 0.18388 1.0000
Ar33 Ar 1 0.68388 0.68388 0.31612 1.0000
Ar34 Ar 1 0.31612 0.31612 0.68388 1.0000
Ar35 Ar 1 0.31612 0.31612 0.31612 1.0000
Ar36 Ar 1 0.68388 0.68388 0.68388 1.0000
Ar37 Ar 1 0.68388 0.31612 0.68388 1.0000
Ar38 Ar 1 0.31612 0.68388 0.31612 1.0000
Ar39 Ar 1 0.31612 0.68388 0.68388 1.0000
Ar40 Ar 1 0.68388 0.31612 0.31612 1.0000
Ar41 Ar 1 0.00000 0.50000 0.25000 1.0000
Ar42 Ar 1 0.00000 0.50000 0.75000 1.0000
Ar43 Ar 1 0.25000 0.00000 0.50000 1.0000
Ar44 Ar 1 0.75000 0.00000 0.50000 1.0000
Ar45 Ar 1 0.50000 0.25000 0.00000 1.0000
Ar46 Ar 1 0.50000 0.75000 0.00000 1.0000
B1 B 1 0.00000 0.32200 1.00000 1.0000
B2 B 1 0.09100 0.24700 0.15300 1.0000
B3 B 1 0.90900 0.24700 0.15300 1.0000
B4 B 1 0.00000 0.40400 0.17750 1.0000
B5 B 1 0.00000 0.67800 1.00000 1.0000
B6 B 1 0.90900 0.75300 0.84700 1.0000
B7 B 1 0.09100 0.75300 0.84700 1.0000
B8 B 1 0.00000 0.59600 0.82250 1.0000
B9 B 1 0.90900 0.75300 0.15300 1.0000
B10 B 1 0.09100 0.75300 0.15300 1.0000
B11 B 1 0.00000 0.59600 0.17750 1.0000
B12 B 1 0.09100 0.24700 0.84700 1.0000
B13 B 1 0.90900 0.24700 0.84700 1.0000
B14 B 1 0.00000 0.40400 0.82250 1.0000
B15 B 1 1.00000 0.00000 0.32200 1.0000
B16 B 1 0.15300 0.09100 0.24700 1.0000
B17 B 1 0.15300 0.90900 0.24700 1.0000
B18 B 1 0.17750 0.00000 0.40400 1.0000
B19 B 1 1.00000 0.00000 0.67800 1.0000
B20 B 1 0.84700 0.90900 0.75300 1.0000
B21 B 1 0.84700 0.09100 0.75300 1.0000
B22 B 1 0.82250 0.00000 0.59600 1.0000
B23 B 1 0.15300 0.09100 0.75300 1.0000
B24 B 1 0.15300 0.90900 0.75300 1.0000
B25 B 1 0.17750 0.00000 0.59600 1.0000
B26 B 1 0.84700 0.90900 0.24700 1.0000
B27 B 1 0.84700 0.09100 0.24700 1.0000
B28 B 1 0.82250 0.00000 0.40400 1.0000
B29 B 1 0.32200 1.00000 0.00000 1.0000
B30 B 1 0.24700 0.15300 0.09100 1.0000
B31 B 1 0.24700 0.15300 0.90900 1.0000
B32 B 1 0.40400 0.17750 0.00000 1.0000
B33 B 1 0.67800 1.00000 0.00000 1.0000
B34 B 1 0.75300 0.84700 0.90900 1.0000
B35 B 1 0.75300 0.84700 0.09100 1.0000
B36 B 1 0.59600 0.82250 0.00000 1.0000
B37 B 1 0.75300 0.15300 0.90900 1.0000
B38 B 1 0.75300 0.15300 0.09100 1.0000
B39 B 1 0.59600 0.17750 0.00000 1.0000
B40 B 1 0.24700 0.84700 0.09100 1.0000
B41 B 1 0.24700 0.84700 0.90900 1.0000
B42 B 1 0.40400 0.82250 0.00000 1.0000
B43 B 1 0.82200 0.50000 0.50000 1.0000
B44 B 1 0.74700 0.59100 0.34700 1.0000
B45 B 1 0.74700 0.40900 0.34700 1.0000
B46 B 1 0.90400 0.50000 0.32250 1.0000
B47 B 1 0.17800 0.50000 0.50000 1.0000
B48 B 1 0.25300 0.40900 0.65300 1.0000
B49 B 1 0.25300 0.59100 0.65300 1.0000
B50 B 1 0.09600 0.50000 0.67750 1.0000
B51 B 1 0.25300 0.40900 0.34700 1.0000
B52 B 1 0.25300 0.59100 0.34700 1.0000
B53 B 1 0.09600 0.50000 0.32250 1.0000
B54 B 1 0.74700 0.59100 0.65300 1.0000
B55 B 1 0.74700 0.40900 0.65300 1.0000
B56 B 1 0.90400 0.50000 0.67750 1.0000
B57 B 1 0.50000 0.50000 0.17800 1.0000
B58 B 1 0.59100 0.65300 0.25300 1.0000
B59 B 1 0.40900 0.65300 0.25300 1.0000
B60 B 1 0.50000 0.67750 0.09600 1.0000
B61 B 1 0.50000 0.50000 0.82200 1.0000
B62 B 1 0.40900 0.34700 0.74700 1.0000
B63 B 1 0.59100 0.34700 0.74700 1.0000
B64 B 1 0.50000 0.32250 0.90400 1.0000
B65 B 1 0.59100 0.65300 0.74700 1.0000
B66 B 1 0.40900 0.65300 0.74700 1.0000
B67 B 1 0.50000 0.67750 0.90400 1.0000
B68 B 1 0.40900 0.34700 0.25300 1.0000
B69 B 1 0.59100 0.34700 0.25300 1.0000
B70 B 1 0.50000 0.32250 0.09600 1.0000
B71 B 1 0.50000 0.82200 0.50000 1.0000
B72 B 1 0.65300 0.74700 0.40900 1.0000
B73 B 1 0.65300 0.74700 0.59100 1.0000
B74 B 1 0.67750 0.90400 0.50000 1.0000
B75 B 1 0.50000 0.17800 0.50000 1.0000
B76 B 1 0.34700 0.25300 0.59100 1.0000
B77 B 1 0.34700 0.25300 0.40900 1.0000
B78 B 1 0.32250 0.09600 0.50000 1.0000
B79 B 1 0.65300 0.25300 0.59100 1.0000
B80 B 1 0.65300 0.25300 0.40900 1.0000
B81 B 1 0.67750 0.09600 0.50000 1.0000
B82 B 1 0.34700 0.74700 0.40900 1.0000
B83 B 1 0.34700 0.74700 0.59100 1.0000
B84 B 1 0.32250 0.90400 0.50000 1.0000
B85 B 1 0.25000 0.25000 0.25000 1.0000
B86 B 1 0.75000 0.75000 0.75000 1.0000
B87 B 1 0.75000 0.75000 0.25000 1.0000
B88 B 1 0.25000 0.25000 0.75000 1.0000
B89 B 1 0.75000 0.25000 0.75000 1.0000
B90 B 1 0.25000 0.75000 0.25000 1.0000
B91 B 1 0.25000 0.75000 0.75000 1.0000
B92 B 1 0.75000 0.25000 0.25000 1.0000
#End of data_1_NAHCIJ

data_2_KELKUH
_chemical_name_common		'Xe3.5(CCl4)8(D2O)136'
_chemical_formula_structural	'Xe3.5(CCl4)8(D2O)136'
_chemical_formula_sum		'Ar1 B2'
_citation_special_details	'original source structure doi: 10.1107/S0108768189012966'
;
File: KELKUH.cif.
;
_cell_length_a			12.59628
_cell_length_b			12.59628
_cell_length_c			12.59628
_cell_angle_alpha		90.00000
_cell_angle_beta		90.00000
_cell_angle_gamma		90.00000
_cell_volume			1998.60570
_cell_formula_units_Z		136
_symmetry_space_group_name_H-M	'P 1'
_symmetry_Int_Tables_number	1
loop_
_symmetry_equiv_pos_site_id
_symmetry_equiv_pos_as_xyz
1 x,y,z
loop_
_atom_site_label
_atom_site_type_symbol
_atom_site_symmetry_multiplicity
_atom_site_fract_x
_atom_site_fract_y
_atom_site_fract_z
_atom_site_occupancy
Ar1 Ar 1 0.81781 0.93219 0.11956 1.0000
Ar2 Ar 1 0.18219 0.06781 0.88044 1.0000
Ar3 Ar 1 0.93219 0.31781 0.61956 1.0000
Ar4 Ar 1 0.06781 0.68219 0.38044 1.0000
Ar5 Ar 1 0.43219 0.43219 0.63044 1.0000
Ar6 Ar 1 0.56781 0.56781 0.36956 1.0000
Ar7 Ar 1 0.31781 0.81781 0.13044 1.0000
Ar8 Ar 1 0.68219 0.18219 0.86956 1.0000
Ar9 Ar 1 0.11956 0.81781 0.93219 1.0000
Ar10 Ar 1 0.88044 0.18219 0.06781 1.0000
Ar11 Ar 1 0.61956 0.93219 0.31781 1.0000
Ar12 Ar 1 0.38044 0.06781 0.68219 1.0000
Ar13 Ar 1 0.63044 0.43219 0.43219 1.0000
Ar14 Ar 1 0.36956 0.56781 0.56781 1.0000
Ar15 Ar 1 0.13044 0.31781 0.81781 1.0000
Ar16 Ar 1 0.86956 0.68219 0.18219 1.0000
Ar17 Ar 1 0.93219 0.11956 0.81781 1.0000
Ar18 Ar 1 0.06781 0.88044 0.18219 1.0000
Ar19 Ar 1 0.31781 0.61956 0.93219 1.0000
Ar20 Ar 1 0.68219 0.38044 0.06781 1.0000
Ar21 Ar 1 0.43219 0.63044 0.43219 1.0000
Ar22 Ar 1 0.56781 0.36956 0.56781 1.0000
Ar23 Ar 1 0.81781 0.13044 0.31781 1.0000
Ar24 Ar 1 0.18219 0.86956 0.68219 1.0000
Ar25 Ar 1 0.68219 0.06781 0.38044 1.0000
Ar26 Ar 1 0.31781 0.93219 0.61956 1.0000
Ar27 Ar 1 0.06781 0.18219 0.88044 1.0000
Ar28 Ar 1 0.93219 0.81781 0.11956 1.0000
Ar29 Ar 1 0.18219 0.68219 0.86956 1.0000
Ar30 Ar 1 0.81781 0.31781 0.13044 1.0000
Ar31 Ar 1 0.68219 0.86956 0.18219 1.0000
Ar32 Ar 1 0.31781 0.13044 0.81781 1.0000
Ar33 Ar 1 0.18219 0.88044 0.06781 1.0000
Ar34 Ar 1 0.81781 0.11956 0.93219 1.0000
Ar35 Ar 1 0.06781 0.38044 0.68219 1.0000
Ar36 Ar 1 0.93219 0.61956 0.31781 1.0000
Ar37 Ar 1 0.86956 0.18219 0.68219 1.0000
Ar38 Ar 1 0.13044 0.81781 0.31781 1.0000
Ar39 Ar 1 0.38044 0.68219 0.06781 1.0000
Ar40 Ar 1 0.61956 0.31781 0.93219 1.0000
Ar41 Ar 1 0.88044 0.06781 0.18219 1.0000
Ar42 Ar 1 0.11956 0.93219 0.81781 1.0000
Ar43 Ar 1 0.81781 0.43219 0.61956 1.0000
Ar44 Ar 1 0.18219 0.56781 0.38044 1.0000
Ar45 Ar 1 0.43219 0.93219 0.13044 1.0000
Ar46 Ar 1 0.56781 0.06781 0.86956 1.0000
Ar47 Ar 1 0.31781 0.31781 0.63044 1.0000
Ar48 Ar 1 0.68219 0.68219 0.36956 1.0000
Ar49 Ar 1 0.11956 0.31781 0.43219 1.0000
Ar50 Ar 1 0.88044 0.68219 0.56781 1.0000
Ar51 Ar 1 0.61956 0.43219 0.81781 1.0000
Ar52 Ar 1 0.38044 0.56781 0.18219 1.0000
Ar53 Ar 1 0.63044 0.93219 0.93219 1.0000
Ar54 Ar 1 0.36956 0.06781 0.06781 1.0000
Ar55 Ar 1 0.31781 0.11956 0.43219 1.0000
Ar56 Ar 1 0.68219 0.88044 0.56781 1.0000
Ar57 Ar 1 0.43219 0.13044 0.93219 1.0000
Ar58 Ar 1 0.56781 0.86956 0.06781 1.0000
Ar59 Ar 1 0.81781 0.63044 0.81781 1.0000
Ar60 Ar 1 0.18219 0.36956 0.18219 1.0000
Ar61 Ar 1 0.68219 0.56781 0.88044 1.0000
Ar62 Ar 1 0.31781 0.43219 0.11956 1.0000
Ar63 Ar 1 0.18219 0.18219 0.36956 1.0000
Ar64 Ar 1 0.81781 0.81781 0.63044 1.0000
Ar65 Ar 1 0.68219 0.36956 0.68219 1.0000
Ar66 Ar 1 0.31781 0.63044 0.31781 1.0000
Ar67 Ar 1 0.18219 0.38044 0.56781 1.0000
Ar68 Ar 1 0.81781 0.61956 0.43219 1.0000
Ar69 Ar 1 0.38044 0.18219 0.56781 1.0000
Ar70 Ar 1 0.61956 0.81781 0.43219 1.0000
Ar71 Ar 1 0.88044 0.56781 0.68219 1.0000
Ar72 Ar 1 0.11956 0.43219 0.31781 1.0000
Ar73 Ar 1 0.43219 0.31781 0.11956 1.0000
Ar74 Ar 1 0.56781 0.68219 0.88044 1.0000
Ar75 Ar 1 0.93219 0.43219 0.13044 1.0000
Ar76 Ar 1 0.06781 0.56781 0.86956 1.0000
Ar77 Ar 1 0.13044 0.43219 0.93219 1.0000
Ar78 Ar 1 0.86956 0.56781 0.06781 1.0000
Ar79 Ar 1 0.63044 0.31781 0.31781 1.0000
Ar80 Ar 1 0.36956 0.68219 0.68219 1.0000
Ar81 Ar 1 0.43219 0.11956 0.31781 1.0000
Ar82 Ar 1 0.56781 0.88044 0.68219 1.0000
Ar83 Ar 1 0.93219 0.63044 0.93219 1.0000
Ar84 Ar 1 0.06781 0.36956 0.06781 1.0000
Ar85 Ar 1 0.56781 0.18219 0.38044 1.0000
Ar86 Ar 1 0.43219 0.81781 0.61956 1.0000
Ar87 Ar 1 0.56781 0.38044 0.18219 1.0000
Ar88 Ar 1 0.43219 0.61956 0.81781 1.0000
Ar89 Ar 1 0.36956 0.18219 0.18219 1.0000
Ar90 Ar 1 0.63044 0.81781 0.81781 1.0000
Ar91 Ar 1 0.93219 0.93219 0.63044 1.0000
Ar92 Ar 1 0.06781 0.06781 0.36956 1.0000
Ar93 Ar 1 0.13044 0.93219 0.43219 1.0000
Ar94 Ar 1 0.86956 0.06781 0.56781 1.0000
Ar95 Ar 1 0.93219 0.13044 0.43219 1.0000
Ar96 Ar 1 0.06781 0.86956 0.56781 1.0000
Ar97 Ar 1 0.78329 0.96671 0.96671 1.0000
Ar98 Ar 1 0.21671 0.03329 0.03329 1.0000
Ar99 Ar 1 0.96671 0.28329 0.46671 1.0000
Ar100 Ar 1 0.03329 0.71671 0.53329 1.0000
Ar101 Ar 1 0.46671 0.46671 0.78329 1.0000
Ar102 Ar 1 0.53329 0.53329 0.21671 1.0000
Ar103 Ar 1 0.28329 0.78329 0.28329 1.0000
Ar104 Ar 1 0.71671 0.21671 0.71671 1.0000
Ar105 Ar 1 0.96671 0.78329 0.96671 1.0000
Ar106 Ar 1 0.03329 0.21671 0.03329 1.0000
Ar107 Ar 1 0.46671 0.96671 0.28329 1.0000
Ar108 Ar 1 0.53329 0.03329 0.71671 1.0000
Ar109 Ar 1 0.78329 0.46671 0.46671 1.0000
Ar110 Ar 1 0.21671 0.53329 0.53329 1.0000
Ar111 Ar 1 0.28329 0.28329 0.78329 1.0000
Ar112 Ar 1 0.71671 0.71671 0.21671 1.0000
Ar113 Ar 1 0.96671 0.96671 0.78329 1.0000
Ar114 Ar 1 0.03329 0.03329 0.21671 1.0000
Ar115 Ar 1 0.28329 0.46671 0.96671 1.0000
Ar116 Ar 1 0.71671 0.53329 0.03329 1.0000
Ar117 Ar 1 0.46671 0.78329 0.46671 1.0000
Ar118 Ar 1 0.53329 0.21671 0.53329 1.0000
Ar119 Ar 1 0.78329 0.28329 0.28329 1.0000
Ar120 Ar 1 0.21671 0.71671 0.71671 1.0000
Ar121 Ar 1 0.71671 0.03329 0.53329 1.0000
Ar122 Ar 1 0.28329 0.96671 0.46671 1.0000
Ar123 Ar 1 0.03329 0.53329 0.71671 1.0000
Ar124 Ar 1 0.96671 0.46671 0.28329 1.0000
Ar125 Ar 1 0.53329 0.71671 0.03329 1.0000
Ar126 Ar 1 0.46671 0.28329 0.96671 1.0000
Ar127 Ar 1 0.78329 0.78329 0.78329 1.0000
Ar128 Ar 1 0.21671 0.21671 0.21671 1.0000
Ar129 Ar 1 0.87500 0.87500 0.87500 1.0000
Ar130 Ar 1 0.12500 0.12500 0.12500 1.0000
Ar131 Ar 1 0.87500 0.37500 0.37500 1.0000
Ar132 Ar 1 0.12500 0.62500 0.62500 1.0000
Ar133 Ar 1 0.37500 0.37500 0.87500 1.0000
Ar134 Ar 1 0.62500 0.62500 0.12500 1.0000
Ar135 Ar 1 0.37500 0.87500 0.37500 1.0000
Ar136 Ar 1 0.62500 0.12500 0.62500 1.0000
B1 B 1 0.87500 0.87500 0.12149 1.0000
B2 B 1 0.75000 0.90317 0.15317 1.0000
B3 B 1 0.84682 0.00000 0.15317 1.0000
B4 B 1 0.80006 0.94993 0.04358 1.0000
B5 B 1 0.12500 0.12500 0.87851 1.0000
B6 B 1 0.25000 0.09683 0.84682 1.0000
B7 B 1 0.15317 0.00000 0.84682 1.0000
B8 B 1 0.19994 0.05006 0.95642 1.0000
B9 B 1 0.00000 0.34683 0.65318 1.0000
B10 B 1 0.90317 0.25000 0.65318 1.0000
B11 B 1 0.87500 0.37500 0.62149 1.0000
B12 B 1 0.94993 0.30006 0.54358 1.0000
B13 B 1 0.00000 0.65318 0.34683 1.0000
B14 B 1 0.09683 0.75000 0.34683 1.0000
B15 B 1 0.12500 0.62500 0.37851 1.0000
B16 B 1 0.05006 0.69994 0.45642 1.0000
B17 B 1 0.40317 0.50000 0.59683 1.0000
B18 B 1 0.50000 0.40317 0.59683 1.0000
B19 B 1 0.37500 0.37500 0.62851 1.0000
B20 B 1 0.44994 0.44994 0.70642 1.0000
B21 B 1 0.59683 0.50000 0.40317 1.0000
B22 B 1 0.50000 0.59683 0.40317 1.0000
B23 B 1 0.62500 0.62500 0.37149 1.0000
B24 B 1 0.55006 0.55006 0.29358 1.0000
B25 B 1 0.25000 0.84682 0.09683 1.0000
B26 B 1 0.34683 0.75000 0.09683 1.0000
B27 B 1 0.37500 0.87500 0.12851 1.0000
B28 B 1 0.30006 0.80006 0.20642 1.0000
B29 B 1 0.75000 0.15317 0.90317 1.0000
B30 B 1 0.65318 0.25000 0.90317 1.0000
B31 B 1 0.62500 0.12500 0.87149 1.0000
B32 B 1 0.69994 0.19994 0.79358 1.0000
B33 B 1 0.15317 0.75000 0.90317 1.0000
B34 B 1 0.15317 0.84682 0.00000 1.0000
B35 B 1 0.12149 0.87500 0.87500 1.0000
B36 B 1 0.04358 0.80006 0.94993 1.0000
B37 B 1 0.84682 0.25000 0.09683 1.0000
B38 B 1 0.84682 0.15317 0.00000 1.0000
B39 B 1 0.87851 0.12500 0.12500 1.0000
B40 B 1 0.95642 0.19994 0.05006 1.0000
B41 B 1 0.65318 0.00000 0.34683 1.0000
B42 B 1 0.65318 0.90317 0.25000 1.0000
B43 B 1 0.62149 0.87500 0.37500 1.0000
B44 B 1 0.54358 0.94993 0.30006 1.0000
B45 B 1 0.34683 0.00000 0.65318 1.0000
B46 B 1 0.34683 0.09683 0.75000 1.0000
B47 B 1 0.37851 0.12500 0.62500 1.0000
B48 B 1 0.45642 0.05006 0.69994 1.0000
B49 B 1 0.59683 0.40317 0.50000 1.0000
B50 B 1 0.62851 0.37500 0.37500 1.0000
B51 B 1 0.70642 0.44994 0.44994 1.0000
B52 B 1 0.40317 0.59683 0.50000 1.0000
B53 B 1 0.37149 0.62500 0.62500 1.0000
B54 B 1 0.29358 0.55006 0.55006 1.0000
B55 B 1 0.09683 0.25000 0.84682 1.0000
B56 B 1 0.09683 0.34683 0.75000 1.0000
B57 B 1 0.12851 0.37500 0.87500 1.0000
B58 B 1 0.20642 0.30006 0.80006 1.0000
B59 B 1 0.90317 0.75000 0.15317 1.0000
B60 B 1 0.90317 0.65318 0.25000 1.0000
B61 B 1 0.87149 0.62500 0.12500 1.0000
B62 B 1 0.79358 0.69994 0.19994 1.0000
B63 B 1 0.00000 0.15317 0.84682 1.0000
B64 B 1 0.87500 0.12149 0.87500 1.0000
B65 B 1 0.90317 0.15317 0.75000 1.0000
B66 B 1 0.94993 0.04358 0.80006 1.0000
B67 B 1 0.00000 0.84682 0.15317 1.0000
B68 B 1 0.12500 0.87851 0.12500 1.0000
B69 B 1 0.09683 0.84682 0.25000 1.0000
B70 B 1 0.05006 0.95642 0.19994 1.0000
B71 B 1 0.25000 0.65318 0.90317 1.0000
B72 B 1 0.34683 0.65318 0.00000 1.0000
B73 B 1 0.37500 0.62149 0.87500 1.0000
B74 B 1 0.30006 0.54358 0.94993 1.0000
B75 B 1 0.75000 0.34683 0.09683 1.0000
B76 B 1 0.65318 0.34683 0.00000 1.0000
B77 B 1 0.62500 0.37851 0.12500 1.0000
B78 B 1 0.69994 0.45642 0.05006 1.0000
B79 B 1 0.37500 0.62851 0.37500 1.0000
B80 B 1 0.44994 0.70642 0.44994 1.0000
B81 B 1 0.62500 0.37149 0.62500 1.0000
B82 B 1 0.55006 0.29358 0.55006 1.0000
B83 B 1 0.75000 0.09683 0.34683 1.0000
B84 B 1 0.84682 0.09683 0.25000 1.0000
B85 B 1 0.87500 0.12851 0.37500 1.0000
B86 B 1 0.80006 0.20642 0.30006 1.0000
B87 B 1 0.25000 0.90317 0.65318 1.0000
B88 B 1 0.15317 0.90317 0.75000 1.0000
B89 B 1 0.12500 0.87149 0.62500 1.0000
B90 B 1 0.19994 0.79358 0.69994 1.0000
B91 B 1 0.62500 0.12500 0.37851 1.0000
B92 B 1 0.69994 0.05006 0.45642 1.0000
B93 B 1 0.37500 0.87500 0.62149 1.0000
B94 B 1 0.30006 0.94993 0.54358 1.0000
B95 B 1 0.05006 0.19994 0.95642 1.0000
B96 B 1 0.94993 0.80006 0.04358 1.0000
B97 B 1 0.12500 0.62500 0.87149 1.0000
B98 B 1 0.19994 0.69994 0.79358 1.0000
B99 B 1 0.87500 0.37500 0.12851 1.0000
B100 B 1 0.80006 0.30006 0.20642 1.0000
B101 B 1 0.62500 0.87149 0.12500 1.0000
B102 B 1 0.69994 0.79358 0.19994 1.0000
B103 B 1 0.37500 0.12851 0.87500 1.0000
B104 B 1 0.30006 0.20642 0.80006 1.0000
B105 B 1 0.19994 0.95642 0.05006 1.0000
B106 B 1 0.80006 0.04358 0.94993 1.0000
B107 B 1 0.12500 0.37851 0.62500 1.0000
B108 B 1 0.05006 0.45642 0.69994 1.0000
B109 B 1 0.87500 0.62149 0.37500 1.0000
B110 B 1 0.94993 0.54358 0.30006 1.0000
B111 B 1 0.87149 0.12500 0.62500 1.0000
B112 B 1 0.79358 0.19994 0.69994 1.0000
B113 B 1 0.12851 0.87500 0.37500 1.0000
B114 B 1 0.20642 0.80006 0.30006 1.0000
B115 B 1 0.37851 0.62500 0.12500 1.0000
B116 B 1 0.45642 0.69994 0.05006 1.0000
B117 B 1 0.62149 0.37500 0.87500 1.0000
B118 B 1 0.54358 0.30006 0.94993 1.0000
B119 B 1 0.95642 0.05006 0.19994 1.0000
B120 B 1 0.04358 0.94993 0.80006 1.0000
B121 B 1 0.75000 0.40317 0.65318 1.0000
B122 B 1 0.84682 0.50000 0.65318 1.0000
B123 B 1 0.80006 0.44994 0.54358 1.0000
B124 B 1 0.25000 0.59683 0.34683 1.0000
B125 B 1 0.15317 0.50000 0.34683 1.0000
B126 B 1 0.19994 0.55006 0.45642 1.0000
B127 B 1 0.40317 0.00000 0.09683 1.0000
B128 B 1 0.50000 0.90317 0.09683 1.0000
B129 B 1 0.44994 0.94993 0.20642 1.0000
B130 B 1 0.59683 0.00000 0.90317 1.0000
B131 B 1 0.50000 0.09683 0.90317 1.0000
B132 B 1 0.55006 0.05006 0.79358 1.0000
B133 B 1 0.25000 0.34683 0.59683 1.0000
B134 B 1 0.34683 0.25000 0.59683 1.0000
B135 B 1 0.30006 0.30006 0.70642 1.0000
B136 B 1 0.75000 0.65318 0.40317 1.0000
B137 B 1 0.65318 0.75000 0.40317 1.0000
B138 B 1 0.69994 0.69994 0.29358 1.0000
B139 B 1 0.15317 0.25000 0.40317 1.0000
B140 B 1 0.15317 0.34683 0.50000 1.0000
B141 B 1 0.12149 0.37500 0.37500 1.0000
B142 B 1 0.04358 0.30006 0.44994 1.0000
B143 B 1 0.84682 0.75000 0.59683 1.0000
B144 B 1 0.84682 0.65318 0.50000 1.0000
B145 B 1 0.87851 0.62500 0.62500 1.0000
B146 B 1 0.95642 0.69994 0.55006 1.0000
B147 B 1 0.65318 0.50000 0.84682 1.0000
B148 B 1 0.65318 0.40317 0.75000 1.0000
B149 B 1 0.54358 0.44994 0.80006 1.0000
B150 B 1 0.34683 0.50000 0.15317 1.0000
B151 B 1 0.34683 0.59683 0.25000 1.0000
B152 B 1 0.45642 0.55006 0.19994 1.0000
B153 B 1 0.59683 0.90317 0.00000 1.0000
B154 B 1 0.62851 0.87500 0.87500 1.0000
B155 B 1 0.70642 0.94993 0.94993 1.0000
B156 B 1 0.40317 0.09683 0.00000 1.0000
B157 B 1 0.37149 0.12500 0.12500 1.0000
B158 B 1 0.29358 0.05006 0.05006 1.0000
B159 B 1 0.25000 0.15317 0.40317 1.0000
B160 B 1 0.34683 0.15317 0.50000 1.0000
B161 B 1 0.37500 0.12149 0.37500 1.0000
B162 B 1 0.30006 0.04358 0.44994 1.0000
B163 B 1 0.75000 0.84682 0.59683 1.0000
B164 B 1 0.65318 0.84682 0.50000 1.0000
B165 B 1 0.62500 0.87851 0.62500 1.0000
B166 B 1 0.69994 0.95642 0.55006 1.0000
B167 B 1 0.44994 0.20642 0.94993 1.0000
B168 B 1 0.55006 0.79358 0.05006 1.0000
B169 B 1 0.75000 0.59683 0.84682 1.0000
B170 B 1 0.84682 0.59683 0.75000 1.0000
B171 B 1 0.87500 0.62851 0.87500 1.0000
B172 B 1 0.80006 0.70642 0.80006 1.0000
B173 B 1 0.25000 0.40317 0.15317 1.0000
B174 B 1 0.15317 0.40317 0.25000 1.0000
B175 B 1 0.12500 0.37149 0.12500 1.0000
B176 B 1 0.19994 0.29358 0.19994 1.0000
B177 B 1 0.62500 0.62500 0.87851 1.0000
B178 B 1 0.69994 0.55006 0.95642 1.0000
B179 B 1 0.37500 0.37500 0.12149 1.0000
B180 B 1 0.30006 0.44994 0.04358 1.0000
B181 B 1 0.12500 0.12500 0.37149 1.0000
B182 B 1 0.19994 0.19994 0.29358 1.0000
B183 B 1 0.87500 0.87500 0.62851 1.0000
B184 B 1 0.80006 0.80006 0.70642 1.0000
B185 B 1 0.69994 0.29358 0.69994 1.0000
B186 B 1 0.30006 0.70642 0.30006 1.0000
B187 B 1 0.19994 0.45642 0.55006 1.0000
B188 B 1 0.80006 0.54358 0.44994 1.0000
B189 B 1 0.45642 0.19994 0.55006 1.0000
B190 B 1 0.54358 0.80006 0.44994 1.0000
B191 B 1 0.95642 0.55006 0.69994 1.0000
B192 B 1 0.04358 0.44994 0.30006 1.0000
B193 B 1 0.50000 0.34683 0.15317 1.0000
B194 B 1 0.40317 0.25000 0.15317 1.0000
B195 B 1 0.44994 0.30006 0.04358 1.0000
B196 B 1 0.50000 0.65318 0.84682 1.0000
B197 B 1 0.59683 0.75000 0.84682 1.0000
B198 B 1 0.55006 0.69994 0.95642 1.0000
B199 B 1 0.90317 0.50000 0.09683 1.0000
B200 B 1 0.00000 0.40317 0.09683 1.0000
B201 B 1 0.94993 0.44994 0.20642 1.0000
B202 B 1 0.09683 0.50000 0.90317 1.0000
B203 B 1 0.00000 0.59683 0.90317 1.0000
B204 B 1 0.05006 0.55006 0.79358 1.0000
B205 B 1 0.09683 0.40317 0.00000 1.0000
B206 B 1 0.20642 0.44994 0.94993 1.0000
B207 B 1 0.90317 0.59683 0.00000 1.0000
B208 B 1 0.79358 0.55006 0.05006 1.0000
B209 B 1 0.59683 0.25000 0.34683 1.0000
B210 B 1 0.59683 0.34683 0.25000 1.0000
B211 B 1 0.70642 0.30006 0.30006 1.0000
B212 B 1 0.40317 0.75000 0.65318 1.0000
B213 B 1 0.40317 0.65318 0.75000 1.0000
B214 B 1 0.29358 0.69994 0.69994 1.0000
B215 B 1 0.50000 0.15317 0.34683 1.0000
B216 B 1 0.40317 0.15317 0.25000 1.0000
B217 B 1 0.44994 0.04358 0.30006 1.0000
B218 B 1 0.50000 0.84682 0.65318 1.0000
B219 B 1 0.59683 0.84682 0.75000 1.0000
B220 B 1 0.55006 0.95642 0.69994 1.0000
B221 B 1 0.94993 0.70642 0.94993 1.0000
B222 B 1 0.05006 0.29358 0.05006 1.0000
B223 B 1 0.55006 0.19994 0.45642 1.0000
B224 B 1 0.44994 0.80006 0.54358 1.0000
B225 B 1 0.55006 0.45642 0.19994 1.0000
B226 B 1 0.44994 0.54358 0.80006 1.0000
B227 B 1 0.29358 0.19994 0.19994 1.0000
B228 B 1 0.70642 0.80006 0.80006 1.0000
B229 B 1 0.90317 0.00000 0.59683 1.0000
B230 B 1 0.00000 0.90317 0.59683 1.0000
B231 B 1 0.94993 0.94993 0.70642 1.0000
B232 B 1 0.09683 0.00000 0.40317 1.0000
B233 B 1 0.00000 0.09683 0.40317 1.0000
B234 B 1 0.05006 0.05006 0.29358 1.0000
B235 B 1 0.09683 0.90317 0.50000 1.0000
B236 B 1 0.20642 0.94993 0.44994 1.0000
B237 B 1 0.90317 0.09683 0.50000 1.0000
B238 B 1 0.79358 0.05006 0.55006 1.0000
B239 B 1 0.94993 0.20642 0.44994 1.0000
B240 B 1 0.05006 0.79358 0.55006 1.0000
B241 B 1 0.82917 0.92084 0.92084 1.0000
B242 B 1 0.17083 0.07917 0.07917 1.0000
B243 B 1 0.92084 0.32917 0.42083 1.0000
B244 B 1 0.07917 0.67083 0.57917 1.0000
B245 B 1 0.42083 0.42083 0.82917 1.0000
B246 B 1 0.57917 0.57917 0.17083 1.0000
B247 B 1 0.32917 0.82917 0.32917 1.0000
B248 B 1 0.67083 0.17083 0.67083 1.0000
B249 B 1 0.92084 0.82917 0.92084 1.0000
B250 B 1 0.07917 0.17083 0.07917 1.0000
B251 B 1 0.42083 0.92084 0.32917 1.0000
B252 B 1 0.57917 0.07917 0.67083 1.0000
B253 B 1 0.82917 0.42083 0.42083 1.0000
B254 B 1 0.17083 0.57917 0.57917 1.0000
B255 B 1 0.32917 0.32917 0.82917 1.0000
B256 B 1 0.67083 0.67083 0.17083 1.0000
B257 B 1 0.92084 0.92084 0.82917 1.0000
B258 B 1 0.07917 0.07917 0.17083 1.0000
B259 B 1 0.32917 0.42083 0.92084 1.0000
B260 B 1 0.67083 0.57917 0.07917 1.0000
B261 B 1 0.42083 0.82917 0.42083 1.0000
B262 B 1 0.57917 0.17083 0.57917 1.0000
B263 B 1 0.82917 0.32917 0.32917 1.0000
B264 B 1 0.17083 0.67083 0.67083 1.0000
B265 B 1 0.67083 0.07917 0.57917 1.0000
B266 B 1 0.32917 0.92084 0.42083 1.0000
B267 B 1 0.07917 0.57917 0.67083 1.0000
B268 B 1 0.92084 0.42083 0.32917 1.0000
B269 B 1 0.57917 0.67083 0.07917 1.0000
B270 B 1 0.42083 0.32917 0.92084 1.0000
B271 B 1 0.82917 0.82917 0.82917 1.0000
B272 B 1 0.17083 0.17083 0.17083 1.0000
#End of data_2_KELKUH

data_3_ICSD202310
_chemical_name_common		'hexafluorophosphoric acid hydrate'
_chemical_formula_structural	'HPF6(H2O)7.67'
_chemical_formula_sum		'Ar1 B2'
_citation_special_details	'original source structure doi: 10.1021/ja00238a032'
;
File: ICSD202310.cif.
;
_cell_length_a			9.25404
_cell_length_b			9.25404
_cell_length_c			9.25404
_cell_angle_alpha		90.00000
_cell_angle_beta		90.00000
_cell_angle_gamma		90.00000
_cell_volume			792.49009
_cell_formula_units_Z		46
_symmetry_space_group_name_H-M	'P 1'
_symmetry_Int_Tables_number	1
loop_
_symmetry_equiv_pos_site_id
_symmetry_equiv_pos_as_xyz
1 x,y,z
loop_
_atom_site_label
_atom_site_type_symbol
_atom_site_symmetry_multiplicity
_atom_site_fract_x
_atom_site_fract_y
_atom_site_fract_z
_atom_site_occupancy
Ar1 Ar 1 0.25000 0.00000 0.50000 1.0000
Ar2 Ar 1 0.75000 0.00000 0.50000 1.0000
Ar3 Ar 1 0.50000 0.25000 0.00000 1.0000
Ar4 Ar 1 0.50000 0.75000 0.00000 1.0000
Ar5 Ar 1 0.00000 0.50000 0.25000 1.0000
Ar6 Ar 1 0.00000 0.50000 0.75000 1.0000
Ar7 Ar 1 0.18371 0.18371 0.18371 1.0000
Ar8 Ar 1 0.81629 0.81629 0.81629 1.0000
Ar9 Ar 1 0.81629 0.81629 0.18371 1.0000
Ar10 Ar 1 0.18371 0.18371 0.81629 1.0000
Ar11 Ar 1 0.81629 0.18371 0.81629 1.0000
Ar12 Ar 1 0.18371 0.81629 0.18371 1.0000
Ar13 Ar 1 0.18371 0.81629 0.81629 1.0000
Ar14 Ar 1 0.81629 0.18371 0.18371 1.0000
Ar15 Ar 1 0.68371 0.68371 0.31629 1.0000
Ar16 Ar 1 0.31629 0.31629 0.68371 1.0000
Ar17 Ar 1 0.31629 0.31629 0.31629 1.0000
Ar18 Ar 1 0.68371 0.68371 0.68371 1.0000
Ar19 Ar 1 0.68371 0.31629 0.68371 1.0000
Ar20 Ar 1 0.31629 0.68371 0.31629 1.0000
Ar21 Ar 1 0.31629 0.68371 0.68371 1.0000
Ar22 Ar 1 0.68371 0.31629 0.31629 1.0000
Ar23 Ar 1 0.00000 0.30510 0.12470 1.0000
Ar24 Ar 1 0.00000 0.69490 0.87530 1.0000
Ar25 Ar 1 0.00000 0.69490 0.12470 1.0000
Ar26 Ar 1 0.00000 0.30510 0.87530 1.0000
Ar27 Ar 1 0.12470 0.00000 0.30510 1.0000
Ar28 Ar 1 0.87530 0.00000 0.69490 1.0000
Ar29 Ar 1 0.12470 0.00000 0.69490 1.0000
Ar30 Ar 1 0.87530 0.00000 0.30510 1.0000
Ar31 Ar 1 0.30510 0.12470 0.00000 1.0000
Ar32 Ar 1 0.69490 0.87530 0.00000 1.0000
Ar33 Ar 1 0.69490 0.12470 0.00000 1.0000
Ar34 Ar 1 0.30510 0.87530 0.00000 1.0000
Ar35 Ar 1 0.80510 0.50000 0.37530 1.0000
Ar36 Ar 1 0.19490 0.50000 0.62470 1.0000
Ar37 Ar 1 0.19490 0.50000 0.37530 1.0000
Ar38 Ar 1 0.80510 0.50000 0.62470 1.0000
Ar39 Ar 1 0.50000 0.62470 0.19490 1.0000
Ar40 Ar 1 0.50000 0.37530 0.80510 1.0000
Ar41 Ar 1 0.50000 0.62470 0.80510 1.0000
Ar42 Ar 1 0.50000 0.37530 0.19490 1.0000
Ar43 Ar 1 0.62470 0.80510 0.50000 1.0000
Ar44 Ar 1 0.37530 0.19490 0.50000 1.0000
Ar45 Ar 1 0.62470 0.19490 0.50000 1.0000
Ar46 Ar 1 0.37530 0.80510 0.50000 1.0000
B1 B 1 0.18700 0.00000 0.40350 1.0000
B2 B 1 0.18700 0.00000 0.59650 1.0000
B3 B 1 0.31300 0.09650 0.50000 1.0000
B4 B 1 0.31300 0.90350 0.50000 1.0000
B5 B 1 0.81300 0.00000 0.59650 1.0000
B6 B 1 0.81300 0.00000 0.40350 1.0000
B7 B 1 0.68700 0.90350 0.50000 1.0000
B8 B 1 0.68700 0.09650 0.50000 1.0000
B9 B 1 0.40350 0.18700 0.00000 1.0000
B10 B 1 0.59650 0.18700 0.00000 1.0000
B11 B 1 0.50000 0.31300 0.90350 1.0000
B12 B 1 0.50000 0.31300 0.09650 1.0000
B13 B 1 0.59650 0.81300 0.00000 1.0000
B14 B 1 0.40350 0.81300 0.00000 1.0000
B15 B 1 0.50000 0.68700 0.09650 1.0000
B16 B 1 0.50000 0.68700 0.90350 1.0000
B17 B 1 0.00000 0.40350 0.18700 1.0000
B18 B 1 0.00000 0.59650 0.18700 1.0000
B19 B 1 0.90350 0.50000 0.31300 1.0000
B20 B 1 0.09650 0.50000 0.31300 1.0000
B21 B 1 0.00000 0.59650 0.81300 1.0000
B22 B 1 0.00000 0.40350 0.81300 1.0000
B23 B 1 0.09650 0.50000 0.68700 1.0000
B24 B 1 0.90350 0.50000 0.68700 1.0000
B25 B 1 0.25000 0.25000 0.25000 1.0000
B26 B 1 0.09800 0.24450 0.15850 1.0000
B27 B 1 0.15850 0.09800 0.24450 1.0000
B28 B 1 0.24450 0.15850 0.09800 1.0000
B29 B 1 0.75000 0.75000 0.75000 1.0000
B30 B 1 0.90200 0.75550 0.84150 1.0000
B31 B 1 0.84150 0.90200 0.75550 1.0000
B32 B 1 0.75550 0.84150 0.90200 1.0000
B33 B 1 0.75000 0.75000 0.25000 1.0000
B34 B 1 0.90200 0.75550 0.15850 1.0000
B35 B 1 0.84150 0.90200 0.24450 1.0000
B36 B 1 0.75550 0.84150 0.09800 1.0000
B37 B 1 0.25000 0.25000 0.75000 1.0000
B38 B 1 0.09800 0.24450 0.84150 1.0000
B39 B 1 0.15850 0.09800 0.75550 1.0000
B40 B 1 0.24450 0.15850 0.90200 1.0000
B41 B 1 0.75000 0.25000 0.75000 1.0000
B42 B 1 0.90200 0.24450 0.84150 1.0000
B43 B 1 0.84150 0.09800 0.75550 1.0000
B44 B 1 0.75550 0.15850 0.90200 1.0000
B45 B 1 0.25000 0.75000 0.25000 1.0000
B46 B 1 0.09800 0.75550 0.15850 1.0000
B47 B 1 0.15850 0.90200 0.24450 1.0000
B48 B 1 0.24450 0.84150 0.09800 1.0000
B49 B 1 0.25000 0.75000 0.75000 1.0000
B50 B 1 0.09800 0.75550 0.84150 1.0000
B51 B 1 0.15850 0.90200 0.75550 1.0000
B52 B 1 0.24450 0.84150 0.90200 1.0000
B53 B 1 0.75000 0.25000 0.25000 1.0000
B54 B 1 0.90200 0.24450 0.15850 1.0000
B55 B 1 0.84150 0.09800 0.24450 1.0000
B56 B 1 0.75550 0.15850 0.09800 1.0000
B57 B 1 0.74450 0.59800 0.34150 1.0000
B58 B 1 0.59800 0.65850 0.25550 1.0000
B59 B 1 0.65850 0.74450 0.40200 1.0000
B60 B 1 0.25550 0.40200 0.65850 1.0000
B61 B 1 0.40200 0.34150 0.74450 1.0000
B62 B 1 0.34150 0.25550 0.59800 1.0000
B63 B 1 0.25550 0.40200 0.34150 1.0000
B64 B 1 0.40200 0.34150 0.25550 1.0000
B65 B 1 0.34150 0.25550 0.40200 1.0000
B66 B 1 0.74450 0.59800 0.65850 1.0000
B67 B 1 0.59800 0.65850 0.74450 1.0000
B68 B 1 0.65850 0.74450 0.59800 1.0000
B69 B 1 0.74450 0.40200 0.65850 1.0000
B70 B 1 0.59800 0.34150 0.74450 1.0000
B71 B 1 0.65850 0.25550 0.59800 1.0000
B72 B 1 0.25550 0.59800 0.34150 1.0000
B73 B 1 0.40200 0.65850 0.25550 1.0000
B74 B 1 0.34150 0.74450 0.40200 1.0000
B75 B 1 0.25550 0.59800 0.65850 1.0000
B76 B 1 0.40200 0.65850 0.74450 1.0000
B77 B 1 0.34150 0.74450 0.59800 1.0000
B78 B 1 0.74450 0.40200 0.34150 1.0000
B79 B 1 0.59800 0.34150 0.25550 1.0000
B80 B 1 0.65850 0.25550 0.40200 1.0000
B81 B 1 0.00000 0.31900 1.00000 1.0000
B82 B 1 0.00000 0.68100 1.00000 1.0000
B83 B 1 1.00000 0.00000 0.31900 1.0000
B84 B 1 1.00000 0.00000 0.68100 1.0000
B85 B 1 0.31900 1.00000 0.00000 1.0000
B86 B 1 0.68100 1.00000 0.00000 1.0000
B87 B 1 0.81900 0.50000 0.50000 1.0000
B88 B 1 0.18100 0.50000 0.50000 1.0000
B89 B 1 0.50000 0.50000 0.18100 1.0000
B90 B 1 0.50000 0.50000 0.81900 1.0000
B91 B 1 0.50000 0.81900 0.50000 1.0000
B92 B 1 0.50000 0.18100 0.50000 1.0000
#End of data_3_ICSD202310

data_4_NAHDAC
_chemical_name_common		'methane-adamantane clathrate'
_chemical_formula_structural	'C10H16(CH4)5(H2O)34'
_chemical_formula_sum		'Ar1 B2'
_citation_special_details	'original source structure doi: 10.1021/ja049247c'
;
File: NAHDAC.cif.
;
_cell_length_a			9.21554
_cell_length_b			9.21554
_cell_length_c			7.41450
_cell_angle_alpha		90.00000
_cell_angle_beta		90.00000
_cell_angle_gamma		120.00000
_cell_volume			545.32307
_cell_formula_units_Z		34
_symmetry_space_group_name_H-M	'P 1'
_symmetry_Int_Tables_number	1
loop_
_symmetry_equiv_pos_site_id
_symmetry_equiv_pos_as_xyz
1 x,y,z
loop_
_atom_site_label
_atom_site_type_symbol
_atom_site_symmetry_multiplicity
_atom_site_fract_x
_atom_site_fract_y
_atom_site_fract_z
_atom_site_occupancy
Ar1 Ar 1 0.33333 0.66667 0.13820 1.0000
Ar2 Ar 1 0.66667 0.33333 0.86180 1.0000
Ar3 Ar 1 0.66667 0.33333 0.13820 1.0000
Ar4 Ar 1 0.33333 0.66667 0.86180 1.0000
Ar5 Ar 1 0.13016 0.26030 0.00000 1.0000
Ar6 Ar 1 0.86984 0.73970 0.00000 1.0000
Ar7 Ar 1 0.73970 0.86986 0.00000 1.0000
Ar8 Ar 1 0.26030 0.13014 0.00000 1.0000
Ar9 Ar 1 0.13014 0.86984 0.00000 1.0000
Ar10 Ar 1 0.86986 0.13016 0.00000 1.0000
Ar11 Ar 1 1.00000 0.38760 0.35997 1.0000
Ar12 Ar 1 0.00000 0.61240 0.64003 1.0000
Ar13 Ar 1 0.61240 0.61240 0.35997 1.0000
Ar14 Ar 1 0.38760 0.38760 0.64003 1.0000
Ar15 Ar 1 0.38760 0.00000 0.35997 1.0000
Ar16 Ar 1 0.61240 0.00000 0.64003 1.0000
Ar17 Ar 1 0.00000 0.61240 0.35997 1.0000
Ar18 Ar 1 1.00000 0.38760 0.64003 1.0000
Ar19 Ar 1 0.38760 0.38760 0.35997 1.0000
Ar20 Ar 1 0.61240 0.61240 0.64003 1.0000
Ar21 Ar 1 0.61240 0.00000 0.35997 1.0000
Ar22 Ar 1 0.38760 0.00000 0.64003 1.0000
Ar23 Ar 1 0.20945 0.41890 0.22274 1.0000
Ar24 Ar 1 0.79055 0.58110 0.77726 1.0000
Ar25 Ar 1 0.58110 0.79055 0.22274 1.0000
Ar26 Ar 1 0.41890 0.20945 0.77726 1.0000
Ar27 Ar 1 0.20945 0.79055 0.22274 1.0000
Ar28 Ar 1 0.79055 0.20945 0.77726 1.0000
Ar29 Ar 1 0.79055 0.58110 0.22274 1.0000
Ar30 Ar 1 0.20945 0.41890 0.77726 1.0000
Ar31 Ar 1 0.41890 0.20945 0.22274 1.0000
Ar32 Ar 1 0.58110 0.79055 0.77726 1.0000
Ar33 Ar 1 0.79055 0.20945 0.22274 1.0000
Ar34 Ar 1 0.20945 0.79055 0.77726 1.0000
B1 B 1 0.33333 0.66667 1.00000 1.0000
B2 B 1 0.27050 0.54150 0.18150 1.0000
B3 B 1 0.45850 0.72900 0.18150 1.0000
B4 B 1 0.27100 0.72950 0.18150 1.0000
B5 B 1 0.66667 0.33333 1.00000 1.0000
B6 B 1 0.72950 0.45850 0.81850 1.0000
B7 B 1 0.54150 0.27100 0.81850 1.0000
B8 B 1 0.72900 0.27050 0.81850 1.0000
B9 B 1 0.72950 0.45850 0.18150 1.0000
B10 B 1 0.54150 0.27100 0.18150 1.0000
B11 B 1 0.72900 0.27050 0.18150 1.0000
B12 B 1 0.27050 0.54150 0.81850 1.0000
B13 B 1 0.45850 0.72900 0.81850 1.0000
B14 B 1 0.27100 0.72950 0.81850 1.0000
B15 B 1 0.19350 0.19350 0.00000 1.0000
B16 B 1 1.00000 0.19350 0.00000 1.0000
B17 B 1 0.17100 0.34150 0.11200 1.0000
B18 B 1 0.17100 0.34150 0.88800 1.0000
B19 B 1 0.80650 0.80650 0.00000 1.0000
B20 B 1 1.00000 0.80650 0.00000 1.0000
B21 B 1 0.82900 0.65850 0.88800 1.0000
B22 B 1 0.82900 0.65850 0.11200 1.0000
B23 B 1 0.80650 0.00000 0.00000 1.0000
B24 B 1 0.65850 0.82950 0.11200 1.0000
B25 B 1 0.65850 0.82950 0.88800 1.0000
B26 B 1 0.19350 0.00000 0.00000 1.0000
B27 B 1 0.34150 0.17050 0.88800 1.0000
B28 B 1 0.34150 0.17050 0.11200 1.0000
B29 B 1 0.17050 0.82900 0.11200 1.0000
B30 B 1 0.17050 0.82900 0.88800 1.0000
B31 B 1 0.82950 0.17100 0.88800 1.0000
B32 B 1 0.82950 0.17100 0.11200 1.0000
B33 B 1 1.00000 0.50000 0.35900 1.0000
B34 B 1 0.00000 0.38100 0.50000 1.0000
B35 B 1 0.10300 0.40000 0.30050 1.0000
B36 B 1 0.89700 0.29700 0.30050 1.0000
B37 B 1 1.00000 0.61900 0.50000 1.0000
B38 B 1 1.00000 0.50000 0.64100 1.0000
B39 B 1 0.89700 0.60000 0.69950 1.0000
B40 B 1 0.10300 0.70300 0.69950 1.0000
B41 B 1 0.50000 0.50000 0.35900 1.0000
B42 B 1 0.61900 0.61900 0.50000 1.0000
B43 B 1 0.60000 0.70300 0.30050 1.0000
B44 B 1 0.70300 0.60000 0.30050 1.0000
B45 B 1 0.38100 0.38100 0.50000 1.0000
B46 B 1 0.50000 0.50000 0.64100 1.0000
B47 B 1 0.40000 0.29700 0.69950 1.0000
B48 B 1 0.29700 0.40000 0.69950 1.0000
B49 B 1 0.50000 0.00000 0.35900 1.0000
B50 B 1 0.38100 0.00000 0.50000 1.0000
B51 B 1 0.29700 0.89700 0.30050 1.0000
B52 B 1 0.40000 0.10300 0.30050 1.0000
B53 B 1 0.61900 0.00000 0.50000 1.0000
B54 B 1 0.50000 0.00000 0.64100 1.0000
B55 B 1 0.70300 0.10300 0.69950 1.0000
B56 B 1 0.60000 0.89700 0.69950 1.0000
B57 B 1 0.10300 0.70300 0.30050 1.0000
B58 B 1 0.89700 0.60000 0.30050 1.0000
B59 B 1 0.89700 0.29700 0.69950 1.0000
B60 B 1 0.10300 0.40000 0.69950 1.0000
B61 B 1 0.29700 0.40000 0.30050 1.0000
B62 B 1 0.40000 0.29700 0.30050 1.0000
B63 B 1 0.70300 0.60000 0.69950 1.0000
B64 B 1 0.60000 0.70300 0.69950 1.0000
B65 B 1 0.60000 0.89700 0.30050 1.0000
B66 B 1 0.70300 0.10300 0.30050 1.0000
B67 B 1 0.40000 0.10300 0.69950 1.0000
B68 B 1 0.29700 0.89700 0.69950 1.0000
#End of data_4_NAHDAC

data_5_NAHCOP
_chemical_name_common		'propane clathrate'
_chemical_formula_structural	'(C3H8)8(H2O)136'
_chemical_formula_sum		'Ar1 B2'
_citation_special_details	'original source structure doi: 10.1021/ja049247c'
;
File: NAHCOP.cif.
;
_cell_length_a			12.77042
_cell_length_b			12.77042
_cell_length_c			12.77042
_cell_angle_alpha		90.00000
_cell_angle_beta		90.00000
_cell_angle_gamma		90.00000
_cell_volume			2082.64644
_cell_formula_units_Z		136
_symmetry_space_group_name_H-M	'P 1'
_symmetry_Int_Tables_number	1
loop_
_symmetry_equiv_pos_site_id
_symmetry_equiv_pos_as_xyz
1 x,y,z
loop_
_atom_site_label
_atom_site_type_symbol
_atom_site_symmetry_multiplicity
_atom_site_fract_x
_atom_site_fract_y
_atom_site_fract_z
_atom_site_occupancy
Ar1 Ar 1 0.37500 0.37500 0.37500 1.0000
Ar2 Ar 1 0.62500 0.62500 0.62500 1.0000
Ar3 Ar 1 0.37500 0.87500 0.87500 1.0000
Ar4 Ar 1 0.62500 0.12500 0.12500 1.0000
Ar5 Ar 1 0.87500 0.87500 0.37500 1.0000
Ar6 Ar 1 0.12500 0.12500 0.62500 1.0000
Ar7 Ar 1 0.87500 0.37500 0.87500 1.0000
Ar8 Ar 1 0.12500 0.62500 0.12500 1.0000
Ar9 Ar 1 0.28279 0.28279 0.28279 1.0000
Ar10 Ar 1 0.71721 0.71721 0.71721 1.0000
Ar11 Ar 1 0.46721 0.96721 0.78279 1.0000
Ar12 Ar 1 0.53279 0.03279 0.21721 1.0000
Ar13 Ar 1 0.96721 0.78279 0.46721 1.0000
Ar14 Ar 1 0.03279 0.21721 0.53279 1.0000
Ar15 Ar 1 0.78279 0.46721 0.96721 1.0000
Ar16 Ar 1 0.21721 0.53279 0.03279 1.0000
Ar17 Ar 1 0.03279 0.53279 0.21721 1.0000
Ar18 Ar 1 0.96721 0.46721 0.78279 1.0000
Ar19 Ar 1 0.53279 0.21721 0.03279 1.0000
Ar20 Ar 1 0.46721 0.78279 0.96721 1.0000
Ar21 Ar 1 0.21721 0.03279 0.53279 1.0000
Ar22 Ar 1 0.78279 0.96721 0.46721 1.0000
Ar23 Ar 1 0.28279 0.78279 0.78279 1.0000
Ar24 Ar 1 0.71721 0.21721 0.21721 1.0000
Ar25 Ar 1 0.46721 0.46721 0.28279 1.0000
Ar26 Ar 1 0.53279 0.53279 0.71721 1.0000
Ar27 Ar 1 0.96721 0.28279 0.96721 1.0000
Ar28 Ar 1 0.03279 0.71721 0.03279 1.0000
Ar29 Ar 1 0.03279 0.03279 0.71721 1.0000
Ar30 Ar 1 0.96721 0.96721 0.28279 1.0000
Ar31 Ar 1 0.53279 0.71721 0.53279 1.0000
Ar32 Ar 1 0.46721 0.28279 0.46721 1.0000
Ar33 Ar 1 0.78279 0.28279 0.78279 1.0000
Ar34 Ar 1 0.21721 0.71721 0.21721 1.0000
Ar35 Ar 1 0.28279 0.46721 0.46721 1.0000
Ar36 Ar 1 0.71721 0.53279 0.53279 1.0000
Ar37 Ar 1 0.71721 0.03279 0.03279 1.0000
Ar38 Ar 1 0.28279 0.96721 0.96721 1.0000
Ar39 Ar 1 0.78279 0.78279 0.28279 1.0000
Ar40 Ar 1 0.21721 0.21721 0.71721 1.0000
Ar41 Ar 1 0.31764 0.31764 0.12967 1.0000
Ar42 Ar 1 0.68236 0.68236 0.87033 1.0000
Ar43 Ar 1 0.43236 0.93236 0.62967 1.0000
Ar44 Ar 1 0.56764 0.06764 0.37033 1.0000
Ar45 Ar 1 0.93236 0.81764 0.62033 1.0000
Ar46 Ar 1 0.06764 0.18236 0.37967 1.0000
Ar47 Ar 1 0.81764 0.43236 0.12033 1.0000
Ar48 Ar 1 0.18236 0.56764 0.87967 1.0000
Ar49 Ar 1 0.12967 0.31764 0.31764 1.0000
Ar50 Ar 1 0.87033 0.68236 0.68236 1.0000
Ar51 Ar 1 0.62967 0.43236 0.93236 1.0000
Ar52 Ar 1 0.37033 0.56764 0.06764 1.0000
Ar53 Ar 1 0.62033 0.93236 0.81764 1.0000
Ar54 Ar 1 0.37967 0.06764 0.18236 1.0000
Ar55 Ar 1 0.12033 0.81764 0.43236 1.0000
Ar56 Ar 1 0.87967 0.18236 0.56764 1.0000
Ar57 Ar 1 0.31764 0.12967 0.31764 1.0000
Ar58 Ar 1 0.68236 0.87033 0.68236 1.0000
Ar59 Ar 1 0.93236 0.62967 0.43236 1.0000
Ar60 Ar 1 0.06764 0.37033 0.56764 1.0000
Ar61 Ar 1 0.81764 0.62033 0.93236 1.0000
Ar62 Ar 1 0.18236 0.37967 0.06764 1.0000
Ar63 Ar 1 0.43236 0.12033 0.81764 1.0000
Ar64 Ar 1 0.56764 0.87967 0.18236 1.0000
Ar65 Ar 1 0.06764 0.56764 0.37033 1.0000
Ar66 Ar 1 0.93236 0.43236 0.62967 1.0000
Ar67 Ar 1 0.56764 0.18236 0.87967 1.0000
Ar68 Ar 1 0.43236 0.81764 0.12033 1.0000
Ar69 Ar 1 0.18236 0.06764 0.37967 1.0000
Ar70 Ar 1 0.81764 0.93236 0.62033 1.0000
Ar71 Ar 1 0.06764 0.37967 0.18236 1.0000
Ar72 Ar 1 0.93236 0.62033 0.81764 1.0000
Ar73 Ar 1 0.18236 0.87967 0.56764 1.0000
Ar74 Ar 1 0.81764 0.12033 0.43236 1.0000
Ar75 Ar 1 0.56764 0.37033 0.06764 1.0000
Ar76 Ar 1 0.43236 0.62967 0.93236 1.0000
Ar77 Ar 1 0.87967 0.56764 0.18236 1.0000
Ar78 Ar 1 0.12033 0.43236 0.81764 1.0000
Ar79 Ar 1 0.37967 0.18236 0.06764 1.0000
Ar80 Ar 1 0.62033 0.81764 0.93236 1.0000
Ar81 Ar 1 0.37033 0.06764 0.56764 1.0000
Ar82 Ar 1 0.62967 0.93236 0.43236 1.0000
Ar83 Ar 1 0.31764 0.81764 0.62967 1.0000
Ar84 Ar 1 0.68236 0.18236 0.37033 1.0000
Ar85 Ar 1 0.43236 0.43236 0.12967 1.0000
Ar86 Ar 1 0.56764 0.56764 0.87033 1.0000
Ar87 Ar 1 0.93236 0.31764 0.12033 1.0000
Ar88 Ar 1 0.06764 0.68236 0.87967 1.0000
Ar89 Ar 1 0.12967 0.81764 0.81764 1.0000
Ar90 Ar 1 0.87033 0.18236 0.18236 1.0000
Ar91 Ar 1 0.62033 0.43236 0.31764 1.0000
Ar92 Ar 1 0.37967 0.56764 0.68236 1.0000
Ar93 Ar 1 0.12033 0.31764 0.93236 1.0000
Ar94 Ar 1 0.87967 0.68236 0.06764 1.0000
Ar95 Ar 1 0.31764 0.62967 0.81764 1.0000
Ar96 Ar 1 0.68236 0.37033 0.18236 1.0000
Ar97 Ar 1 0.93236 0.12967 0.93236 1.0000
Ar98 Ar 1 0.06764 0.87033 0.06764 1.0000
Ar99 Ar 1 0.43236 0.62033 0.31764 1.0000
Ar100 Ar 1 0.56764 0.37967 0.68236 1.0000
Ar101 Ar 1 0.06764 0.06764 0.87033 1.0000
Ar102 Ar 1 0.93236 0.93236 0.12967 1.0000
Ar103 Ar 1 0.56764 0.68236 0.37967 1.0000
Ar104 Ar 1 0.43236 0.31764 0.62033 1.0000
Ar105 Ar 1 0.06764 0.87967 0.68236 1.0000
Ar106 Ar 1 0.93236 0.12033 0.31764 1.0000
Ar107 Ar 1 0.56764 0.87033 0.56764 1.0000
Ar108 Ar 1 0.43236 0.12967 0.43236 1.0000
Ar109 Ar 1 0.87967 0.06764 0.68236 1.0000
Ar110 Ar 1 0.12033 0.93236 0.31764 1.0000
Ar111 Ar 1 0.37967 0.68236 0.56764 1.0000
Ar112 Ar 1 0.62033 0.31764 0.43236 1.0000
Ar113 Ar 1 0.81764 0.31764 0.62967 1.0000
Ar114 Ar 1 0.18236 0.68236 0.37033 1.0000
Ar115 Ar 1 0.31764 0.43236 0.62033 1.0000
Ar116 Ar 1 0.68236 0.56764 0.37967 1.0000
Ar117 Ar 1 0.62967 0.31764 0.81764 1.0000
Ar118 Ar 1 0.37033 0.68236 0.18236 1.0000
Ar119 Ar 1 0.12967 0.43236 0.43236 1.0000
Ar120 Ar 1 0.87033 0.56764 0.56764 1.0000
Ar121 Ar 1 0.81764 0.12967 0.81764 1.0000
Ar122 Ar 1 0.18236 0.87033 0.18236 1.0000
Ar123 Ar 1 0.31764 0.62033 0.43236 1.0000
Ar124 Ar 1 0.68236 0.37967 0.56764 1.0000
Ar125 Ar 1 0.68236 0.06764 0.87967 1.0000
Ar126 Ar 1 0.31764 0.93236 0.12033 1.0000
Ar127 Ar 1 0.68236 0.87967 0.06764 1.0000
Ar128 Ar 1 0.31764 0.12033 0.93236 1.0000
Ar129 Ar 1 0.87033 0.06764 0.06764 1.0000
Ar130 Ar 1 0.12967 0.93236 0.93236 1.0000
Ar131 Ar 1 0.81764 0.81764 0.12967 1.0000
Ar132 Ar 1 0.18236 0.18236 0.87033 1.0000
Ar133 Ar 1 0.62967 0.81764 0.31764 1.0000
Ar134 Ar 1 0.37033 0.18236 0.68236 1.0000
Ar135 Ar 1 0.81764 0.62967 0.31764 1.0000
Ar136 Ar 1 0.18236 0.37033 0.68236 1.0000
B1 B 1 0.32800 0.32800 0.32800 1.0000
B2 B 1 0.42200 0.42200 0.32800 1.0000
B3 B 1 0.42200 0.32800 0.42200 1.0000
B4 B 1 0.32800 0.42200 0.42200 1.0000
B5 B 1 0.67200 0.67200 0.67200 1.0000
B6 B 1 0.57800 0.57800 0.67200 1.0000
B7 B 1 0.57800 0.67200 0.57800 1.0000
B8 B 1 0.67200 0.57800 0.57800 1.0000
B9 B 1 0.42200 0.92200 0.82800 1.0000
B10 B 1 0.42200 0.82800 0.92200 1.0000
B11 B 1 0.32800 0.82800 0.82800 1.0000
B12 B 1 0.32800 0.92200 0.92200 1.0000
B13 B 1 0.57800 0.07800 0.17200 1.0000
B14 B 1 0.57800 0.17200 0.07800 1.0000
B15 B 1 0.67200 0.17200 0.17200 1.0000
B16 B 1 0.67200 0.07800 0.07800 1.0000
B17 B 1 0.92200 0.82800 0.42200 1.0000
B18 B 1 0.82800 0.92200 0.42200 1.0000
B19 B 1 0.92200 0.92200 0.32800 1.0000
B20 B 1 0.82800 0.82800 0.32800 1.0000
B21 B 1 0.07800 0.17200 0.57800 1.0000
B22 B 1 0.17200 0.07800 0.57800 1.0000
B23 B 1 0.07800 0.07800 0.67200 1.0000
B24 B 1 0.17200 0.17200 0.67200 1.0000
B25 B 1 0.82800 0.42200 0.92200 1.0000
B26 B 1 0.92200 0.42200 0.82800 1.0000
B27 B 1 0.92200 0.32800 0.92200 1.0000
B28 B 1 0.82800 0.32800 0.82800 1.0000
B29 B 1 0.17200 0.57800 0.07800 1.0000
B30 B 1 0.07800 0.57800 0.17200 1.0000
B31 B 1 0.07800 0.67200 0.07800 1.0000
B32 B 1 0.17200 0.67200 0.17200 1.0000
B33 B 1 0.29990 0.29990 0.20600 1.0000
B34 B 1 0.20600 0.29990 0.29990 1.0000
B35 B 1 0.29990 0.20600 0.29990 1.0000
B36 B 1 0.70010 0.70010 0.79400 1.0000
B37 B 1 0.79400 0.70010 0.70010 1.0000
B38 B 1 0.70010 0.79400 0.70010 1.0000
B39 B 1 0.45010 0.95010 0.70600 1.0000
B40 B 1 0.54400 0.95010 0.79990 1.0000
B41 B 1 0.45010 0.04400 0.79990 1.0000
B42 B 1 0.54990 0.04990 0.29400 1.0000
B43 B 1 0.45600 0.04990 0.20010 1.0000
B44 B 1 0.54990 0.95600 0.20010 1.0000
B45 B 1 0.95010 0.79990 0.54400 1.0000
B46 B 1 0.04400 0.79990 0.45010 1.0000
B47 B 1 0.95010 0.70600 0.45010 1.0000
B48 B 1 0.04990 0.20010 0.45600 1.0000
B49 B 1 0.95600 0.20010 0.54990 1.0000
B50 B 1 0.04990 0.29400 0.54990 1.0000
B51 B 1 0.79990 0.45010 0.04400 1.0000
B52 B 1 0.70600 0.45010 0.95010 1.0000
B53 B 1 0.79990 0.54400 0.95010 1.0000
B54 B 1 0.20010 0.54990 0.95600 1.0000
B55 B 1 0.29400 0.54990 0.04990 1.0000
B56 B 1 0.20010 0.45600 0.04990 1.0000
B57 B 1 0.04990 0.54990 0.29400 1.0000
B58 B 1 0.04990 0.45600 0.20010 1.0000
B59 B 1 0.95600 0.54990 0.20010 1.0000
B60 B 1 0.95010 0.45010 0.70600 1.0000
B61 B 1 0.95010 0.54400 0.79990 1.0000
B62 B 1 0.04400 0.45010 0.79990 1.0000
B63 B 1 0.54990 0.20010 0.95600 1.0000
B64 B 1 0.54990 0.29400 0.04990 1.0000
B65 B 1 0.45600 0.20010 0.04990 1.0000
B66 B 1 0.45010 0.79990 0.04400 1.0000
B67 B 1 0.45010 0.70600 0.95010 1.0000
B68 B 1 0.54400 0.79990 0.95010 1.0000
B69 B 1 0.20010 0.04990 0.45600 1.0000
B70 B 1 0.20010 0.95600 0.54990 1.0000
B71 B 1 0.29400 0.04990 0.54990 1.0000
B72 B 1 0.79990 0.95010 0.54400 1.0000
B73 B 1 0.79990 0.04400 0.45010 1.0000
B74 B 1 0.70600 0.95010 0.45010 1.0000
B75 B 1 0.29990 0.79990 0.70600 1.0000
B76 B 1 0.20600 0.79990 0.79990 1.0000
B77 B 1 0.29990 0.70600 0.79990 1.0000
B78 B 1 0.70010 0.20010 0.29400 1.0000
B79 B 1 0.79400 0.20010 0.20010 1.0000
B80 B 1 0.70010 0.29400 0.20010 1.0000
B81 B 1 0.45010 0.45010 0.20600 1.0000
B82 B 1 0.54400 0.45010 0.29990 1.0000
B83 B 1 0.45010 0.54400 0.29990 1.0000
B84 B 1 0.54990 0.54990 0.79400 1.0000
B85 B 1 0.45600 0.54990 0.70010 1.0000
B86 B 1 0.54990 0.45600 0.70010 1.0000
B87 B 1 0.95010 0.29990 0.04400 1.0000
B88 B 1 0.04400 0.29990 0.95010 1.0000
B89 B 1 0.95010 0.20600 0.95010 1.0000
B90 B 1 0.04990 0.70010 0.95600 1.0000
B91 B 1 0.95600 0.70010 0.04990 1.0000
B92 B 1 0.04990 0.79400 0.04990 1.0000
B93 B 1 0.04990 0.04990 0.79400 1.0000
B94 B 1 0.04990 0.95600 0.70010 1.0000
B95 B 1 0.95600 0.04990 0.70010 1.0000
B96 B 1 0.95010 0.95010 0.20600 1.0000
B97 B 1 0.95010 0.04400 0.29990 1.0000
B98 B 1 0.04400 0.95010 0.29990 1.0000
B99 B 1 0.54990 0.70010 0.45600 1.0000
B100 B 1 0.54990 0.79400 0.54990 1.0000
B101 B 1 0.45600 0.70010 0.54990 1.0000
B102 B 1 0.45010 0.29990 0.54400 1.0000
B103 B 1 0.45010 0.20600 0.45010 1.0000
B104 B 1 0.54400 0.29990 0.45010 1.0000
B105 B 1 0.79990 0.29990 0.70600 1.0000
B106 B 1 0.70600 0.29990 0.79990 1.0000
B107 B 1 0.79990 0.20600 0.79990 1.0000
B108 B 1 0.20010 0.70010 0.29400 1.0000
B109 B 1 0.29400 0.70010 0.20010 1.0000
B110 B 1 0.20010 0.79400 0.20010 1.0000
B111 B 1 0.29990 0.45010 0.54400 1.0000
B112 B 1 0.20600 0.45010 0.45010 1.0000
B113 B 1 0.29990 0.54400 0.45010 1.0000
B114 B 1 0.70010 0.54990 0.45600 1.0000
B115 B 1 0.79400 0.54990 0.54990 1.0000
B116 B 1 0.70010 0.45600 0.54990 1.0000
B117 B 1 0.70010 0.04990 0.95600 1.0000
B118 B 1 0.70010 0.95600 0.04990 1.0000
B119 B 1 0.79400 0.04990 0.04990 1.0000
B120 B 1 0.29990 0.95010 0.04400 1.0000
B121 B 1 0.29990 0.04400 0.95010 1.0000
B122 B 1 0.20600 0.95010 0.95010 1.0000
B123 B 1 0.79990 0.79990 0.20600 1.0000
B124 B 1 0.70600 0.79990 0.29990 1.0000
B125 B 1 0.79990 0.70600 0.29990 1.0000
B126 B 1 0.20010 0.20010 0.79400 1.0000
B127 B 1 0.29400 0.20010 0.70010 1.0000
B128 B 1 0.20010 0.29400 0.70010 1.0000
B129 B 1 0.25000 0.34615 0.09615 1.0000
B130 B 1 0.34615 0.25000 0.09615 1.0000
B131 B 1 0.37500 0.37500 0.12900 1.0000
B132 B 1 0.75000 0.65385 0.90385 1.0000
B133 B 1 0.65385 0.75000 0.90385 1.0000
B134 B 1 0.62500 0.62500 0.87100 1.0000
B135 B 1 0.40385 1.00000 0.59615 1.0000
B136 B 1 0.37500 0.87500 0.62900 1.0000
B137 B 1 0.50000 0.90385 0.59615 1.0000
B138 B 1 0.59615 1.00000 0.40385 1.0000
B139 B 1 0.62500 0.12500 0.37100 1.0000
B140 B 1 0.50000 0.09615 0.40385 1.0000
B141 B 1 0.90385 0.75000 0.65385 1.0000
B142 B 1 0.87500 0.87500 0.62100 1.0000
B143 B 1 1.00000 0.84615 0.65385 1.0000
B144 B 1 0.09615 0.25000 0.34615 1.0000
B145 B 1 0.12500 0.12500 0.37900 1.0000
B146 B 1 1.00000 0.15385 0.34615 1.0000
B147 B 1 0.84615 0.50000 0.15385 1.0000
B148 B 1 0.87500 0.37500 0.12100 1.0000
B149 B 1 0.75000 0.40385 0.15385 1.0000
B150 B 1 0.15385 0.50000 0.84615 1.0000
B151 B 1 0.12500 0.62500 0.87900 1.0000
B152 B 1 0.25000 0.59615 0.84615 1.0000
B153 B 1 0.09615 0.34615 0.25000 1.0000
B154 B 1 0.12900 0.37500 0.37500 1.0000
B155 B 1 0.90385 0.65385 0.75000 1.0000
B156 B 1 0.87100 0.62500 0.62500 1.0000
B157 B 1 0.59615 0.40385 1.00000 1.0000
B158 B 1 0.59615 0.50000 0.90385 1.0000
B159 B 1 0.62900 0.37500 0.87500 1.0000
B160 B 1 0.40385 0.59615 1.00000 1.0000
B161 B 1 0.40385 0.50000 0.09615 1.0000
B162 B 1 0.37100 0.62500 0.12500 1.0000
B163 B 1 0.65385 0.90385 0.75000 1.0000
B164 B 1 0.62100 0.87500 0.87500 1.0000
B165 B 1 0.65385 1.00000 0.84615 1.0000
B166 B 1 0.34615 0.09615 0.25000 1.0000
B167 B 1 0.37900 0.12500 0.12500 1.0000
B168 B 1 0.34615 1.00000 0.15385 1.0000
B169 B 1 0.15385 0.84615 0.50000 1.0000
B170 B 1 0.12100 0.87500 0.37500 1.0000
B171 B 1 0.15385 0.75000 0.40385 1.0000
B172 B 1 0.84615 0.15385 0.50000 1.0000
B173 B 1 0.87900 0.12500 0.62500 1.0000
B174 B 1 0.84615 0.25000 0.59615 1.0000
B175 B 1 0.25000 0.09615 0.34615 1.0000
B176 B 1 0.37500 0.12900 0.37500 1.0000
B177 B 1 0.75000 0.90385 0.65385 1.0000
B178 B 1 0.62500 0.87100 0.62500 1.0000
B179 B 1 1.00000 0.59615 0.40385 1.0000
B180 B 1 0.90385 0.59615 0.50000 1.0000
B181 B 1 0.87500 0.62900 0.37500 1.0000
B182 B 1 1.00000 0.40385 0.59615 1.0000
B183 B 1 0.09615 0.40385 0.50000 1.0000
B184 B 1 0.12500 0.37100 0.62500 1.0000
B185 B 1 0.87500 0.62100 0.87500 1.0000
B186 B 1 0.84615 0.65385 1.00000 1.0000
B187 B 1 0.12500 0.37900 0.12500 1.0000
B188 B 1 0.15385 0.34615 1.00000 1.0000
B189 B 1 0.50000 0.15385 0.84615 1.0000
B190 B 1 0.37500 0.12100 0.87500 1.0000
B191 B 1 0.40385 0.15385 0.75000 1.0000
B192 B 1 0.50000 0.84615 0.15385 1.0000
B193 B 1 0.62500 0.87900 0.12500 1.0000
B194 B 1 0.59615 0.84615 0.25000 1.0000
B195 B 1 0.12500 0.62500 0.37100 1.0000
B196 B 1 0.09615 0.50000 0.40385 1.0000
B197 B 1 0.87500 0.37500 0.62900 1.0000
B198 B 1 0.90385 0.50000 0.59615 1.0000
B199 B 1 0.59615 0.25000 0.84615 1.0000
B200 B 1 0.62500 0.12500 0.87900 1.0000
B201 B 1 0.40385 0.75000 0.15385 1.0000
B202 B 1 0.37500 0.87500 0.12100 1.0000
B203 B 1 0.15385 1.00000 0.34615 1.0000
B204 B 1 0.84615 1.00000 0.65385 1.0000
B205 B 1 1.00000 0.34615 0.15385 1.0000
B206 B 1 1.00000 0.65385 0.84615 1.0000
B207 B 1 0.25000 0.84615 0.59615 1.0000
B208 B 1 0.12500 0.87900 0.62500 1.0000
B209 B 1 0.75000 0.15385 0.40385 1.0000
B210 B 1 0.87500 0.12100 0.37500 1.0000
B211 B 1 0.50000 0.40385 0.09615 1.0000
B212 B 1 0.62500 0.37100 0.12500 1.0000
B213 B 1 0.50000 0.59615 0.90385 1.0000
B214 B 1 0.37500 0.62900 0.87500 1.0000
B215 B 1 0.87900 0.62500 0.12500 1.0000
B216 B 1 0.84615 0.59615 0.25000 1.0000
B217 B 1 0.12100 0.37500 0.87500 1.0000
B218 B 1 0.15385 0.40385 0.75000 1.0000
B219 B 1 0.34615 0.15385 1.00000 1.0000
B220 B 1 0.65385 0.84615 1.00000 1.0000
B221 B 1 0.40385 0.09615 0.50000 1.0000
B222 B 1 0.37100 0.12500 0.62500 1.0000
B223 B 1 0.59615 0.90385 0.50000 1.0000
B224 B 1 0.62900 0.87500 0.37500 1.0000
B225 B 1 0.34615 0.75000 0.59615 1.0000
B226 B 1 0.65385 0.25000 0.40385 1.0000
B227 B 1 0.90385 0.25000 0.15385 1.0000
B228 B 1 0.09615 0.75000 0.84615 1.0000
B229 B 1 0.09615 0.84615 0.75000 1.0000
B230 B 1 0.12900 0.87500 0.87500 1.0000
B231 B 1 0.90385 0.15385 0.25000 1.0000
B232 B 1 0.87100 0.12500 0.12500 1.0000
B233 B 1 0.65385 0.40385 0.25000 1.0000
B234 B 1 0.62100 0.37500 0.37500 1.0000
B235 B 1 0.65385 0.50000 0.34615 1.0000
B236 B 1 0.34615 0.59615 0.75000 1.0000
B237 B 1 0.37900 0.62500 0.62500 1.0000
B238 B 1 0.34615 0.50000 0.65385 1.0000
B239 B 1 0.15385 0.25000 0.90385 1.0000
B240 B 1 0.84615 0.75000 0.09615 1.0000
B241 B 1 1.00000 0.09615 0.90385 1.0000
B242 B 1 0.87500 0.12900 0.87500 1.0000
B243 B 1 0.90385 0.09615 1.00000 1.0000
B244 B 1 1.00000 0.90385 0.09615 1.0000
B245 B 1 0.12500 0.87100 0.12500 1.0000
B246 B 1 0.09615 0.90385 1.00000 1.0000
B247 B 1 0.50000 0.65385 0.34615 1.0000
B248 B 1 0.40385 0.65385 0.25000 1.0000
B249 B 1 0.37500 0.62100 0.37500 1.0000
B250 B 1 0.50000 0.34615 0.65385 1.0000
B251 B 1 0.59615 0.34615 0.75000 1.0000
B252 B 1 0.62500 0.37900 0.62500 1.0000
B253 B 1 0.09615 1.00000 0.90385 1.0000
B254 B 1 0.12500 0.12500 0.87100 1.0000
B255 B 1 0.90385 1.00000 0.09615 1.0000
B256 B 1 0.87500 0.87500 0.12900 1.0000
B257 B 1 0.62500 0.62500 0.37900 1.0000
B258 B 1 0.59615 0.75000 0.34615 1.0000
B259 B 1 0.37500 0.37500 0.62100 1.0000
B260 B 1 0.40385 0.25000 0.65385 1.0000
B261 B 1 0.84615 0.09615 0.75000 1.0000
B262 B 1 0.15385 0.90385 0.25000 1.0000
B263 B 1 0.34615 0.65385 0.50000 1.0000
B264 B 1 0.65385 0.34615 0.50000 1.0000
B265 B 1 0.75000 0.34615 0.59615 1.0000
B266 B 1 0.25000 0.65385 0.40385 1.0000
B267 B 1 0.25000 0.40385 0.65385 1.0000
B268 B 1 0.75000 0.59615 0.34615 1.0000
B269 B 1 0.75000 0.09615 0.84615 1.0000
B270 B 1 0.25000 0.90385 0.15385 1.0000
B271 B 1 0.75000 0.84615 0.09615 1.0000
B272 B 1 0.25000 0.15385 0.90385 1.0000
#End of data_5_NAHCOP

data_6_NAHCUV
_chemical_name_common		'methane-propane clathrate'
_chemical_formula_structural	'(C3H8)(CH4)14.9(H2O)136'
_chemical_formula_sum		'Ar1 B2'
_citation_special_details	'original source structure doi: 10.1021/ja049247c'
;
File: NAHCUV.cif.
;
_cell_length_a			13.69752
_cell_length_b			13.69752
_cell_length_c			13.69752
_cell_angle_alpha		90.00000
_cell_angle_beta		90.00000
_cell_angle_gamma		90.00000
_cell_volume			2569.95912
_cell_formula_units_Z		136
_symmetry_space_group_name_H-M	'P 1'
_symmetry_Int_Tables_number	1
loop_
_symmetry_equiv_pos_site_id
_symmetry_equiv_pos_as_xyz
1 x,y,z
loop_
_atom_site_label
_atom_site_type_symbol
_atom_site_symmetry_multiplicity
_atom_site_fract_x
_atom_site_fract_y
_atom_site_fract_z
_atom_site_occupancy
Ar1 Ar 1 0.37500 0.37500 0.37500 1.0000
Ar2 Ar 1 0.62500 0.62500 0.62500 1.0000
Ar3 Ar 1 0.37500 0.87500 0.87500 1.0000
Ar4 Ar 1 0.62500 0.12500 0.12500 1.0000
Ar5 Ar 1 0.87500 0.87500 0.37500 1.0000
Ar6 Ar 1 0.12500 0.12500 0.62500 1.0000
Ar7 Ar 1 0.87500 0.37500 0.87500 1.0000
Ar8 Ar 1 0.12500 0.62500 0.12500 1.0000
Ar9 Ar 1 0.28272 0.28272 0.28272 1.0000
Ar10 Ar 1 0.71728 0.71728 0.71728 1.0000
Ar11 Ar 1 0.46728 0.96728 0.78272 1.0000
Ar12 Ar 1 0.53272 0.03272 0.21728 1.0000
Ar13 Ar 1 0.96728 0.78272 0.46728 1.0000
Ar14 Ar 1 0.03272 0.21728 0.53272 1.0000
Ar15 Ar 1 0.78272 0.46728 0.96728 1.0000
Ar16 Ar 1 0.21728 0.53272 0.03272 1.0000
Ar17 Ar 1 0.03272 0.53272 0.21728 1.0000
Ar18 Ar 1 0.96728 0.46728 0.78272 1.0000
Ar19 Ar 1 0.53272 0.21728 0.03272 1.0000
Ar20 Ar 1 0.46728 0.78272 0.96728 1.0000
Ar21 Ar 1 0.21728 0.03272 0.53272 1.0000
Ar22 Ar 1 0.78272 0.96728 0.46728 1.0000
Ar23 Ar 1 0.28272 0.78272 0.78272 1.0000
Ar24 Ar 1 0.71728 0.21728 0.21728 1.0000
Ar25 Ar 1 0.46728 0.46728 0.28272 1.0000
Ar26 Ar 1 0.53272 0.53272 0.71728 1.0000
Ar27 Ar 1 0.96728 0.28272 0.96728 1.0000
Ar28 Ar 1 0.03272 0.71728 0.03272 1.0000
Ar29 Ar 1 0.03272 0.03272 0.71728 1.0000
Ar30 Ar 1 0.96728 0.96728 0.28272 1.0000
Ar31 Ar 1 0.53272 0.71728 0.53272 1.0000
Ar32 Ar 1 0.46728 0.28272 0.46728 1.0000
Ar33 Ar 1 0.78272 0.28272 0.78272 1.0000
Ar34 Ar 1 0.21728 0.71728 0.21728 1.0000
Ar35 Ar 1 0.28272 0.46728 0.46728 1.0000
Ar36 Ar 1 0.71728 0.53272 0.53272 1.0000
Ar37 Ar 1 0.71728 0.03272 0.03272 1.0000
Ar38 Ar 1 0.28272 0.96728 0.96728 1.0000
Ar39 Ar 1 0.78272 0.78272 0.28272 1.0000
Ar40 Ar 1 0.21728 0.21728 0.71728 1.0000
Ar41 Ar 1 0.31760 0.31760 0.12957 1.0000
Ar42 Ar 1 0.68240 0.68240 0.87043 1.0000
Ar43 Ar 1 0.43240 0.93240 0.62957 1.0000
Ar44 Ar 1 0.56760 0.06760 0.37043 1.0000
Ar45 Ar 1 0.93240 0.81760 0.62043 1.0000
Ar46 Ar 1 0.06760 0.18240 0.37957 1.0000
Ar47 Ar 1 0.81760 0.43240 0.12043 1.0000
Ar48 Ar 1 0.18240 0.56760 0.87957 1.0000
Ar49 Ar 1 0.12957 0.31760 0.31760 1.0000
Ar50 Ar 1 0.87043 0.68240 0.68240 1.0000
Ar51 Ar 1 0.62957 0.43240 0.93240 1.0000
Ar52 Ar 1 0.37043 0.56760 0.06760 1.0000
Ar53 Ar 1 0.62043 0.93240 0.81760 1.0000
Ar54 Ar 1 0.37957 0.06760 0.18240 1.0000
Ar55 Ar 1 0.12043 0.81760 0.43240 1.0000
Ar56 Ar 1 0.87957 0.18240 0.56760 1.0000
Ar57 Ar 1 0.31760 0.12957 0.31760 1.0000
Ar58 Ar 1 0.68240 0.87043 0.68240 1.0000
Ar59 Ar 1 0.93240 0.62957 0.43240 1.0000
Ar60 Ar 1 0.06760 0.37043 0.56760 1.0000
Ar61 Ar 1 0.81760 0.62043 0.93240 1.0000
Ar62 Ar 1 0.18240 0.37957 0.06760 1.0000
Ar63 Ar 1 0.43240 0.12043 0.81760 1.0000
Ar64 Ar 1 0.56760 0.87957 0.18240 1.0000
Ar65 Ar 1 0.06760 0.56760 0.37043 1.0000
Ar66 Ar 1 0.93240 0.43240 0.62957 1.0000
Ar67 Ar 1 0.56760 0.18240 0.87957 1.0000
Ar68 Ar 1 0.43240 0.81760 0.12043 1.0000
Ar69 Ar 1 0.18240 0.06760 0.37957 1.0000
Ar70 Ar 1 0.81760 0.93240 0.62043 1.0000
Ar71 Ar 1 0.06760 0.37957 0.18240 1.0000
Ar72 Ar 1 0.93240 0.62043 0.81760 1.0000
Ar73 Ar 1 0.18240 0.87957 0.56760 1.0000
Ar74 Ar 1 0.81760 0.12043 0.43240 1.0000
Ar75 Ar 1 0.56760 0.37043 0.06760 1.0000
Ar76 Ar 1 0.43240 0.62957 0.93240 1.0000
Ar77 Ar 1 0.87957 0.56760 0.18240 1.0000
Ar78 Ar 1 0.12043 0.43240 0.81760 1.0000
Ar79 Ar 1 0.37957 0.18240 0.06760 1.0000
Ar80 Ar 1 0.62043 0.81760 0.93240 1.0000
Ar81 Ar 1 0.37043 0.06760 0.56760 1.0000
Ar82 Ar 1 0.62957 0.93240 0.43240 1.0000
Ar83 Ar 1 0.31760 0.81760 0.62957 1.0000
Ar84 Ar 1 0.68240 0.18240 0.37043 1.0000
Ar85 Ar 1 0.43240 0.43240 0.12957 1.0000
Ar86 Ar 1 0.56760 0.56760 0.87043 1.0000
Ar87 Ar 1 0.93240 0.31760 0.12043 1.0000
Ar88 Ar 1 0.06760 0.68240 0.87957 1.0000
Ar89 Ar 1 0.12957 0.81760 0.81760 1.0000
Ar90 Ar 1 0.87043 0.18240 0.18240 1.0000
Ar91 Ar 1 0.62043 0.43240 0.31760 1.0000
Ar92 Ar 1 0.37957 0.56760 0.68240 1.0000
Ar93 Ar 1 0.12043 0.31760 0.93240 1.0000
Ar94 Ar 1 0.87957 0.68240 0.06760 1.0000
Ar95 Ar 1 0.31760 0.62957 0.81760 1.0000
Ar96 Ar 1 0.68240 0.37043 0.18240 1.0000
Ar97 Ar 1 0.93240 0.12957 0.93240 1.0000
Ar98 Ar 1 0.06760 0.87043 0.06760 1.0000
Ar99 Ar 1 0.43240 0.62043 0.31760 1.0000
Ar100 Ar 1 0.56760 0.37957 0.68240 1.0000
Ar101 Ar 1 0.06760 0.06760 0.87043 1.0000
Ar102 Ar 1 0.93240 0.93240 0.12957 1.0000
Ar103 Ar 1 0.56760 0.68240 0.37957 1.0000
Ar104 Ar 1 0.43240 0.31760 0.62043 1.0000
Ar105 Ar 1 0.06760 0.87957 0.68240 1.0000
Ar106 Ar 1 0.93240 0.12043 0.31760 1.0000
Ar107 Ar 1 0.56760 0.87043 0.56760 1.0000
Ar108 Ar 1 0.43240 0.12957 0.43240 1.0000
Ar109 Ar 1 0.87957 0.06760 0.68240 1.0000
Ar110 Ar 1 0.12043 0.93240 0.31760 1.0000
Ar111 Ar 1 0.37957 0.68240 0.56760 1.0000
Ar112 Ar 1 0.62043 0.31760 0.43240 1.0000
Ar113 Ar 1 0.81760 0.31760 0.62957 1.0000
Ar114 Ar 1 0.18240 0.68240 0.37043 1.0000
Ar115 Ar 1 0.31760 0.43240 0.62043 1.0000
Ar116 Ar 1 0.68240 0.56760 0.37957 1.0000
Ar117 Ar 1 0.62957 0.31760 0.81760 1.0000
Ar118 Ar 1 0.37043 0.68240 0.18240 1.0000
Ar119 Ar 1 0.12957 0.43240 0.43240 1.0000
Ar120 Ar 1 0.87043 0.56760 0.56760 1.0000
Ar121 Ar 1 0.81760 0.12957 0.81760 1.0000
Ar122 Ar 1 0.18240 0.87043 0.18240 1.0000
Ar123 Ar 1 0.31760 0.62043 0.43240 1.0000
Ar124 Ar 1 0.68240 0.37957 0.56760 1.0000
Ar125 Ar 1 0.68240 0.06760 0.87957 1.0000
Ar126 Ar 1 0.31760 0.93240 0.12043 1.0000
Ar127 Ar 1 0.68240 0.87957 0.06760 1.0000
Ar128 Ar 1 0.31760 0.12043 0.93240 1.0000
Ar129 Ar 1 0.87043 0.06760 0.06760 1.0000
Ar130 Ar 1 0.12957 0.93240 0.93240 1.0000
Ar131 Ar 1 0.81760 0.81760 0.12957 1.0000
Ar132 Ar 1 0.18240 0.18240 0.87043 1.0000
Ar133 Ar 1 0.62957 0.81760 0.31760 1.0000
Ar134 Ar 1 0.37043 0.18240 0.68240 1.0000
Ar135 Ar 1 0.81760 0.62957 0.31760 1.0000
Ar136 Ar 1 0.18240 0.37043 0.68240 1.0000
B1 B 1 0.33285 0.33285 0.33285 1.0000
B2 B 1 0.41715 0.41715 0.33285 1.0000
B3 B 1 0.41715 0.33285 0.41715 1.0000
B4 B 1 0.33285 0.41715 0.41715 1.0000
B5 B 1 0.66715 0.66715 0.66715 1.0000
B6 B 1 0.58285 0.58285 0.66715 1.0000
B7 B 1 0.58285 0.66715 0.58285 1.0000
B8 B 1 0.66715 0.58285 0.58285 1.0000
B9 B 1 0.41715 0.91715 0.83285 1.0000
B10 B 1 0.41715 0.83285 0.91715 1.0000
B11 B 1 0.33285 0.83285 0.83285 1.0000
B12 B 1 0.33285 0.91715 0.91715 1.0000
B13 B 1 0.58285 0.08285 0.16715 1.0000
B14 B 1 0.58285 0.16715 0.08285 1.0000
B15 B 1 0.66715 0.16715 0.16715 1.0000
B16 B 1 0.66715 0.08285 0.08285 1.0000
B17 B 1 0.91715 0.83285 0.41715 1.0000
B18 B 1 0.83285 0.91715 0.41715 1.0000
B19 B 1 0.91715 0.91715 0.33285 1.0000
B20 B 1 0.83285 0.83285 0.33285 1.0000
B21 B 1 0.08285 0.16715 0.58285 1.0000
B22 B 1 0.16715 0.08285 0.58285 1.0000
B23 B 1 0.08285 0.08285 0.66715 1.0000
B24 B 1 0.16715 0.16715 0.66715 1.0000
B25 B 1 0.83285 0.41715 0.91715 1.0000
B26 B 1 0.91715 0.41715 0.83285 1.0000
B27 B 1 0.91715 0.33285 0.91715 1.0000
B28 B 1 0.83285 0.33285 0.83285 1.0000
B29 B 1 0.16715 0.58285 0.08285 1.0000
B30 B 1 0.08285 0.58285 0.16715 1.0000
B31 B 1 0.08285 0.66715 0.08285 1.0000
B32 B 1 0.16715 0.66715 0.16715 1.0000
B33 B 1 0.29915 0.29915 0.20995 1.0000
B34 B 1 0.20995 0.29915 0.29915 1.0000
B35 B 1 0.29915 0.20995 0.29915 1.0000
B36 B 1 0.70085 0.70085 0.79005 1.0000
B37 B 1 0.79005 0.70085 0.70085 1.0000
B38 B 1 0.70085 0.79005 0.70085 1.0000
B39 B 1 0.45085 0.95085 0.70995 1.0000
B40 B 1 0.54005 0.95085 0.79915 1.0000
B41 B 1 0.45085 0.04005 0.79915 1.0000
B42 B 1 0.54915 0.04915 0.29005 1.0000
B43 B 1 0.45995 0.04915 0.20085 1.0000
B44 B 1 0.54915 0.95995 0.20085 1.0000
B45 B 1 0.95085 0.79915 0.54005 1.0000
B46 B 1 0.04005 0.79915 0.45085 1.0000
B47 B 1 0.95085 0.70995 0.45085 1.0000
B48 B 1 0.04915 0.20085 0.45995 1.0000
B49 B 1 0.95995 0.20085 0.54915 1.0000
B50 B 1 0.04915 0.29005 0.54915 1.0000
B51 B 1 0.79915 0.45085 0.04005 1.0000
B52 B 1 0.70995 0.45085 0.95085 1.0000
B53 B 1 0.79915 0.54005 0.95085 1.0000
B54 B 1 0.20085 0.54915 0.95995 1.0000
B55 B 1 0.29005 0.54915 0.04915 1.0000
B56 B 1 0.20085 0.45995 0.04915 1.0000
B57 B 1 0.04915 0.54915 0.29005 1.0000
B58 B 1 0.04915 0.45995 0.20085 1.0000
B59 B 1 0.95995 0.54915 0.20085 1.0000
B60 B 1 0.95085 0.45085 0.70995 1.0000
B61 B 1 0.95085 0.54005 0.79915 1.0000
B62 B 1 0.04005 0.45085 0.79915 1.0000
B63 B 1 0.54915 0.20085 0.95995 1.0000
B64 B 1 0.54915 0.29005 0.04915 1.0000
B65 B 1 0.45995 0.20085 0.04915 1.0000
B66 B 1 0.45085 0.79915 0.04005 1.0000
B67 B 1 0.45085 0.70995 0.95085 1.0000
B68 B 1 0.54005 0.79915 0.95085 1.0000
B69 B 1 0.20085 0.04915 0.45995 1.0000
B70 B 1 0.20085 0.95995 0.54915 1.0000
B71 B 1 0.29005 0.04915 0.54915 1.0000
B72 B 1 0.79915 0.95085 0.54005 1.0000
B73 B 1 0.79915 0.04005 0.45085 1.0000
B74 B 1 0.70995 0.95085 0.45085 1.0000
B75 B 1 0.29915 0.79915 0.70995 1.0000
B76 B 1 0.20995 0.79915 0.79915 1.0000
B77 B 1 0.29915 0.70995 0.79915 1.0000
B78 B 1 0.70085 0.20085 0.29005 1.0000
B79 B 1 0.79005 0.20085 0.20085 1.0000
B80 B 1 0.70085 0.29005 0.20085 1.0000
B81 B 1 0.45085 0.45085 0.20995 1.0000
B82 B 1 0.54005 0.45085 0.29915 1.0000
B83 B 1 0.45085 0.54005 0.29915 1.0000
B84 B 1 0.54915 0.54915 0.79005 1.0000
B85 B 1 0.45995 0.54915 0.70085 1.0000
B86 B 1 0.54915 0.45995 0.70085 1.0000
B87 B 1 0.95085 0.29915 0.04005 1.0000
B88 B 1 0.04005 0.29915 0.95085 1.0000
B89 B 1 0.95085 0.20995 0.95085 1.0000
B90 B 1 0.04915 0.70085 0.95995 1.0000
B91 B 1 0.95995 0.70085 0.04915 1.0000
B92 B 1 0.04915 0.79005 0.04915 1.0000
B93 B 1 0.04915 0.04915 0.79005 1.0000
B94 B 1 0.04915 0.95995 0.70085 1.0000
B95 B 1 0.95995 0.04915 0.70085 1.0000
B96 B 1 0.95085 0.95085 0.20995 1.0000
B97 B 1 0.95085 0.04005 0.29915 1.0000
B98 B 1 0.04005 0.95085 0.29915 1.0000
B99 B 1 0.54915 0.70085 0.45995 1.0000
B100 B 1 0.54915 0.79005 0.54915 1.0000
B101 B 1 0.45995 0.70085 0.54915 1.0000
B102 B 1 0.45085 0.29915 0.54005 1.0000
B103 B 1 0.45085 0.20995 0.45085 1.0000
B104 B 1 0.54005 0.29915 0.45085 1.0000
B105 B 1 0.79915 0.29915 0.70995 1.0000
B106 B 1 0.70995 0.29915 0.79915 1.0000
B107 B 1 0.79915 0.20995 0.79915 1.0000
B108 B 1 0.20085 0.70085 0.29005 1.0000
B109 B 1 0.29005 0.70085 0.20085 1.0000
B110 B 1 0.20085 0.79005 0.20085 1.0000
B111 B 1 0.29915 0.45085 0.54005 1.0000
B112 B 1 0.20995 0.45085 0.45085 1.0000
B113 B 1 0.29915 0.54005 0.45085 1.0000
B114 B 1 0.70085 0.54915 0.45995 1.0000
B115 B 1 0.79005 0.54915 0.54915 1.0000
B116 B 1 0.70085 0.45995 0.54915 1.0000
B117 B 1 0.70085 0.04915 0.95995 1.0000
B118 B 1 0.70085 0.95995 0.04915 1.0000
B119 B 1 0.79005 0.04915 0.04915 1.0000
B120 B 1 0.29915 0.95085 0.04005 1.0000
B121 B 1 0.29915 0.04005 0.95085 1.0000
B122 B 1 0.20995 0.95085 0.95085 1.0000
B123 B 1 0.79915 0.79915 0.20995 1.0000
B124 B 1 0.70995 0.79915 0.29915 1.0000
B125 B 1 0.79915 0.70995 0.29915 1.0000
B126 B 1 0.20085 0.20085 0.79005 1.0000
B127 B 1 0.29005 0.20085 0.70085 1.0000
B128 B 1 0.20085 0.29005 0.70085 1.0000
B129 B 1 0.25000 0.34600 0.09600 1.0000
B130 B 1 0.34600 0.25000 0.09600 1.0000
B131 B 1 0.37500 0.37500 0.12930 1.0000
B132 B 1 0.75000 0.65400 0.90400 1.0000
B133 B 1 0.65400 0.75000 0.90400 1.0000
B134 B 1 0.62500 0.62500 0.87070 1.0000
B135 B 1 0.40400 0.00000 0.59600 1.0000
B136 B 1 0.37500 0.87500 0.62930 1.0000
B137 B 1 0.50000 0.90400 0.59600 1.0000
B138 B 1 0.59600 0.00000 0.40400 1.0000
B139 B 1 0.62500 0.12500 0.37070 1.0000
B140 B 1 0.50000 0.09600 0.40400 1.0000
B141 B 1 0.90400 0.75000 0.65400 1.0000
B142 B 1 0.87500 0.87500 0.62070 1.0000
B143 B 1 0.00000 0.84600 0.65400 1.0000
B144 B 1 0.09600 0.25000 0.34600 1.0000
B145 B 1 0.12500 0.12500 0.37930 1.0000
B146 B 1 0.00000 0.15400 0.34600 1.0000
B147 B 1 0.84600 0.50000 0.15400 1.0000
B148 B 1 0.87500 0.37500 0.12070 1.0000
B149 B 1 0.75000 0.40400 0.15400 1.0000
B150 B 1 0.15400 0.50000 0.84600 1.0000
B151 B 1 0.12500 0.62500 0.87930 1.0000
B152 B 1 0.25000 0.59600 0.84600 1.0000
B153 B 1 0.09600 0.34600 0.25000 1.0000
B154 B 1 0.12930 0.37500 0.37500 1.0000
B155 B 1 0.90400 0.65400 0.75000 1.0000
B156 B 1 0.87070 0.62500 0.62500 1.0000
B157 B 1 0.59600 0.40400 0.00000 1.0000
B158 B 1 0.59600 0.50000 0.90400 1.0000
B159 B 1 0.62930 0.37500 0.87500 1.0000
B160 B 1 0.40400 0.59600 0.00000 1.0000
B161 B 1 0.40400 0.50000 0.09600 1.0000
B162 B 1 0.37070 0.62500 0.12500 1.0000
B163 B 1 0.65400 0.90400 0.75000 1.0000
B164 B 1 0.62070 0.87500 0.87500 1.0000
B165 B 1 0.65400 0.00000 0.84600 1.0000
B166 B 1 0.34600 0.09600 0.25000 1.0000
B167 B 1 0.37930 0.12500 0.12500 1.0000
B168 B 1 0.34600 0.00000 0.15400 1.0000
B169 B 1 0.15400 0.84600 0.50000 1.0000
B170 B 1 0.12070 0.87500 0.37500 1.0000
B171 B 1 0.15400 0.75000 0.40400 1.0000
B172 B 1 0.84600 0.15400 0.50000 1.0000
B173 B 1 0.87930 0.12500 0.62500 1.0000
B174 B 1 0.84600 0.25000 0.59600 1.0000
B175 B 1 0.25000 0.09600 0.34600 1.0000
B176 B 1 0.37500 0.12930 0.37500 1.0000
B177 B 1 0.75000 0.90400 0.65400 1.0000
B178 B 1 0.62500 0.87070 0.62500 1.0000
B179 B 1 0.00000 0.59600 0.40400 1.0000
B180 B 1 0.90400 0.59600 0.50000 1.0000
B181 B 1 0.87500 0.62930 0.37500 1.0000
B182 B 1 0.00000 0.40400 0.59600 1.0000
B183 B 1 0.09600 0.40400 0.50000 1.0000
B184 B 1 0.12500 0.37070 0.62500 1.0000
B185 B 1 0.87500 0.62070 0.87500 1.0000
B186 B 1 0.84600 0.65400 0.00000 1.0000
B187 B 1 0.12500 0.37930 0.12500 1.0000
B188 B 1 0.15400 0.34600 0.00000 1.0000
B189 B 1 0.50000 0.15400 0.84600 1.0000
B190 B 1 0.37500 0.12070 0.87500 1.0000
B191 B 1 0.40400 0.15400 0.75000 1.0000
B192 B 1 0.50000 0.84600 0.15400 1.0000
B193 B 1 0.62500 0.87930 0.12500 1.0000
B194 B 1 0.59600 0.84600 0.25000 1.0000
B195 B 1 0.12500 0.62500 0.37070 1.0000
B196 B 1 0.09600 0.50000 0.40400 1.0000
B197 B 1 0.87500 0.37500 0.62930 1.0000
B198 B 1 0.90400 0.50000 0.59600 1.0000
B199 B 1 0.59600 0.25000 0.84600 1.0000
B200 B 1 0.62500 0.12500 0.87930 1.0000
B201 B 1 0.40400 0.75000 0.15400 1.0000
B202 B 1 0.37500 0.87500 0.12070 1.0000
B203 B 1 0.15400 0.00000 0.34600 1.0000
B204 B 1 0.84600 0.00000 0.65400 1.0000
B205 B 1 0.00000 0.34600 0.15400 1.0000
B206 B 1 0.00000 0.65400 0.84600 1.0000
B207 B 1 0.25000 0.84600 0.59600 1.0000
B208 B 1 0.12500 0.87930 0.62500 1.0000
B209 B 1 0.75000 0.15400 0.40400 1.0000
B210 B 1 0.87500 0.12070 0.37500 1.0000
B211 B 1 0.50000 0.40400 0.09600 1.0000
B212 B 1 0.62500 0.37070 0.12500 1.0000
B213 B 1 0.50000 0.59600 0.90400 1.0000
B214 B 1 0.37500 0.62930 0.87500 1.0000
B215 B 1 0.87930 0.62500 0.12500 1.0000
B216 B 1 0.84600 0.59600 0.25000 1.0000
B217 B 1 0.12070 0.37500 0.87500 1.0000
B218 B 1 0.15400 0.40400 0.75000 1.0000
B219 B 1 0.34600 0.15400 0.00000 1.0000
B220 B 1 0.65400 0.84600 0.00000 1.0000
B221 B 1 0.40400 0.09600 0.50000 1.0000
B222 B 1 0.37070 0.12500 0.62500 1.0000
B223 B 1 0.59600 0.90400 0.50000 1.0000
B224 B 1 0.62930 0.87500 0.37500 1.0000
B225 B 1 0.34600 0.75000 0.59600 1.0000
B226 B 1 0.65400 0.25000 0.40400 1.0000
B227 B 1 0.90400 0.25000 0.15400 1.0000
B228 B 1 0.09600 0.75000 0.84600 1.0000
B229 B 1 0.09600 0.84600 0.75000 1.0000
B230 B 1 0.12930 0.87500 0.87500 1.0000
B231 B 1 0.90400 0.15400 0.25000 1.0000
B232 B 1 0.87070 0.12500 0.12500 1.0000
B233 B 1 0.65400 0.40400 0.25000 1.0000
B234 B 1 0.62070 0.37500 0.37500 1.0000
B235 B 1 0.65400 0.50000 0.34600 1.0000
B236 B 1 0.34600 0.59600 0.75000 1.0000
B237 B 1 0.37930 0.62500 0.62500 1.0000
B238 B 1 0.34600 0.50000 0.65400 1.0000
B239 B 1 0.15400 0.25000 0.90400 1.0000
B240 B 1 0.84600 0.75000 0.09600 1.0000
B241 B 1 0.00000 0.09600 0.90400 1.0000
B242 B 1 0.87500 0.12930 0.87500 1.0000
B243 B 1 0.90400 0.09600 0.00000 1.0000
B244 B 1 0.00000 0.90400 0.09600 1.0000
B245 B 1 0.12500 0.87070 0.12500 1.0000
B246 B 1 0.09600 0.90400 0.00000 1.0000
B247 B 1 0.50000 0.65400 0.34600 1.0000
B248 B 1 0.40400 0.65400 0.25000 1.0000
B249 B 1 0.37500 0.62070 0.37500 1.0000
B250 B 1 0.50000 0.34600 0.65400 1.0000
B251 B 1 0.59600 0.34600 0.75000 1.0000
B252 B 1 0.62500 0.37930 0.62500 1.0000
B253 B 1 0.09600 0.00000 0.90400 1.0000
B254 B 1 0.12500 0.12500 0.87070 1.0000
B255 B 1 0.90400 0.00000 0.09600 1.0000
B256 B 1 0.87500 0.87500 0.12930 1.0000
B257 B 1 0.62500 0.62500 0.37930 1.0000
B258 B 1 0.59600 0.75000 0.34600 1.0000
B259 B 1 0.37500 0.37500 0.62070 1.0000
B260 B 1 0.40400 0.25000 0.65400 1.0000
B261 B 1 0.84600 0.09600 0.75000 1.0000
B262 B 1 0.15400 0.90400 0.25000 1.0000
B263 B 1 0.34600 0.65400 0.50000 1.0000
B264 B 1 0.65400 0.34600 0.50000 1.0000
B265 B 1 0.75000 0.34600 0.59600 1.0000
B266 B 1 0.25000 0.65400 0.40400 1.0000
B267 B 1 0.25000 0.40400 0.65400 1.0000
B268 B 1 0.75000 0.59600 0.34600 1.0000
B269 B 1 0.75000 0.09600 0.84600 1.0000
B270 B 1 0.25000 0.90400 0.15400 1.0000
B271 B 1 0.75000 0.84600 0.09600 1.0000
B272 B 1 0.25000 0.15400 0.90400 1.0000
#End of data_6_NAHCUV

data_7_NAHCEF
_chemical_name_common		'methane clathrate'
_chemical_formula_structural	'(CH4)8(H2O)46'
_chemical_formula_sum		'Ar1 B2'
_citation_special_details	'original source structure doi: 10.1021/ja049247c'
;
File: NAHCEF.cif.
;
_cell_length_a			8.78294
_cell_length_b			8.78294
_cell_length_c			8.78294
_cell_angle_alpha		90.00000
_cell_angle_beta		90.00000
_cell_angle_gamma		90.00000
_cell_volume			677.51699
_cell_formula_units_Z		46
_symmetry_space_group_name_H-M	'P 1'
_symmetry_Int_Tables_number	1
loop_
_symmetry_equiv_pos_site_id
_symmetry_equiv_pos_as_xyz
1 x,y,z
loop_
_atom_site_label
_atom_site_type_symbol
_atom_site_symmetry_multiplicity
_atom_site_fract_x
_atom_site_fract_y
_atom_site_fract_z
_atom_site_occupancy
Ar1 Ar 1 0.00000 0.30860 0.11683 1.0000
Ar2 Ar 1 0.00000 0.69140 0.88317 1.0000
Ar3 Ar 1 0.00000 0.69140 0.11683 1.0000
Ar4 Ar 1 0.00000 0.30860 0.88317 1.0000
Ar5 Ar 1 0.11683 0.00000 0.30860 1.0000
Ar6 Ar 1 0.88317 0.00000 0.69140 1.0000
Ar7 Ar 1 0.11683 0.00000 0.69140 1.0000
Ar8 Ar 1 0.88317 0.00000 0.30860 1.0000
Ar9 Ar 1 0.30860 0.11683 0.00000 1.0000
Ar10 Ar 1 0.69140 0.88317 0.00000 1.0000
Ar11 Ar 1 0.69140 0.11683 0.00000 1.0000
Ar12 Ar 1 0.30860 0.88317 0.00000 1.0000
Ar13 Ar 1 0.80860 0.50000 0.38317 1.0000
Ar14 Ar 1 0.19140 0.50000 0.61683 1.0000
Ar15 Ar 1 0.19140 0.50000 0.38317 1.0000
Ar16 Ar 1 0.80860 0.50000 0.61683 1.0000
Ar17 Ar 1 0.50000 0.61683 0.19140 1.0000
Ar18 Ar 1 0.50000 0.38317 0.80860 1.0000
Ar19 Ar 1 0.50000 0.61683 0.80860 1.0000
Ar20 Ar 1 0.50000 0.38317 0.19140 1.0000
Ar21 Ar 1 0.61683 0.80860 0.50000 1.0000
Ar22 Ar 1 0.38317 0.19140 0.50000 1.0000
Ar23 Ar 1 0.61683 0.19140 0.50000 1.0000
Ar24 Ar 1 0.38317 0.80860 0.50000 1.0000
Ar25 Ar 1 0.18345 0.18345 0.18345 1.0000
Ar26 Ar 1 0.81655 0.81655 0.81655 1.0000
Ar27 Ar 1 0.81655 0.81655 0.18345 1.0000
Ar28 Ar 1 0.18345 0.18345 0.81655 1.0000
Ar29 Ar 1 0.81655 0.18345 0.81655 1.0000
Ar30 Ar 1 0.18345 0.81655 0.18345 1.0000
Ar31 Ar 1 0.18345 0.81655 0.81655 1.0000
Ar32 Ar 1 0.81655 0.18345 0.18345 1.0000
Ar33 Ar 1 0.68345 0.68345 0.31655 1.0000
Ar34 Ar 1 0.31655 0.31655 0.68345 1.0000
Ar35 Ar 1 0.31655 0.31655 0.31655 1.0000
Ar36 Ar 1 0.68345 0.68345 0.68345 1.0000
Ar37 Ar 1 0.68345 0.31655 0.68345 1.0000
Ar38 Ar 1 0.31655 0.68345 0.31655 1.0000
Ar39 Ar 1 0.31655 0.68345 0.68345 1.0000
Ar40 Ar 1 0.68345 0.31655 0.31655 1.0000
Ar41 Ar 1 0.00000 0.50000 0.25000 1.0000
Ar42 Ar 1 0.00000 0.50000 0.75000 1.0000
Ar43 Ar 1 0.25000 0.00000 0.50000 1.0000
Ar44 Ar 1 0.75000 0.00000 0.50000 1.0000
Ar45 Ar 1 0.50000 0.25000 0.00000 1.0000
Ar46 Ar 1 0.50000 0.75000 0.00000 1.0000
B1 B 1 0.00000 0.32500 1.00000 1.0000
B2 B 1 0.08950 0.24550 0.14800 1.0000
B3 B 1 0.91050 0.24550 0.14800 1.0000
B4 B 1 0.00000 0.40350 0.18050 1.0000
B5 B 1 0.00000 0.67500 1.00000 1.0000
B6 B 1 0.91050 0.75450 0.85200 1.0000
B7 B 1 0.08950 0.75450 0.85200 1.0000
B8 B 1 0.00000 0.59650 0.81950 1.0000
B9 B 1 0.91050 0.75450 0.14800 1.0000
B10 B 1 0.08950 0.75450 0.14800 1.0000
B11 B 1 0.00000 0.59650 0.18050 1.0000
B12 B 1 0.08950 0.24550 0.85200 1.0000
B13 B 1 0.91050 0.24550 0.85200 1.0000
B14 B 1 0.00000 0.40350 0.81950 1.0000
B15 B 1 1.00000 0.00000 0.32500 1.0000
B16 B 1 0.14800 0.08950 0.24550 1.0000
B17 B 1 0.14800 0.91050 0.24550 1.0000
B18 B 1 0.18050 0.00000 0.40350 1.0000
B19 B 1 1.00000 0.00000 0.67500 1.0000
B20 B 1 0.85200 0.91050 0.75450 1.0000
B21 B 1 0.85200 0.08950 0.75450 1.0000
B22 B 1 0.81950 0.00000 0.59650 1.0000
B23 B 1 0.14800 0.08950 0.75450 1.0000
B24 B 1 0.14800 0.91050 0.75450 1.0000
B25 B 1 0.18050 0.00000 0.59650 1.0000
B26 B 1 0.85200 0.91050 0.24550 1.0000
B27 B 1 0.85200 0.08950 0.24550 1.0000
B28 B 1 0.81950 0.00000 0.40350 1.0000
B29 B 1 0.32500 1.00000 0.00000 1.0000
B30 B 1 0.24550 0.14800 0.08950 1.0000
B31 B 1 0.24550 0.14800 0.91050 1.0000
B32 B 1 0.40350 0.18050 0.00000 1.0000
B33 B 1 0.67500 1.00000 0.00000 1.0000
B34 B 1 0.75450 0.85200 0.91050 1.0000
B35 B 1 0.75450 0.85200 0.08950 1.0000
B36 B 1 0.59650 0.81950 0.00000 1.0000
B37 B 1 0.75450 0.14800 0.91050 1.0000
B38 B 1 0.75450 0.14800 0.08950 1.0000
B39 B 1 0.59650 0.18050 0.00000 1.0000
B40 B 1 0.24550 0.85200 0.08950 1.0000
B41 B 1 0.24550 0.85200 0.91050 1.0000
B42 B 1 0.40350 0.81950 0.00000 1.0000
B43 B 1 0.82500 0.50000 0.50000 1.0000
B44 B 1 0.74550 0.58950 0.35200 1.0000
B45 B 1 0.74550 0.41050 0.35200 1.0000
B46 B 1 0.90350 0.50000 0.31950 1.0000
B47 B 1 0.17500 0.50000 0.50000 1.0000
B48 B 1 0.25450 0.41050 0.64800 1.0000
B49 B 1 0.25450 0.58950 0.64800 1.0000
B50 B 1 0.09650 0.50000 0.68050 1.0000
B51 B 1 0.25450 0.41050 0.35200 1.0000
B52 B 1 0.25450 0.58950 0.35200 1.0000
B53 B 1 0.09650 0.50000 0.31950 1.0000
B54 B 1 0.74550 0.58950 0.64800 1.0000
B55 B 1 0.74550 0.41050 0.64800 1.0000
B56 B 1 0.90350 0.50000 0.68050 1.0000
B57 B 1 0.50000 0.50000 0.17500 1.0000
B58 B 1 0.58950 0.64800 0.25450 1.0000
B59 B 1 0.41050 0.64800 0.25450 1.0000
B60 B 1 0.50000 0.68050 0.09650 1.0000
B61 B 1 0.50000 0.50000 0.82500 1.0000
B62 B 1 0.41050 0.35200 0.74550 1.0000
B63 B 1 0.58950 0.35200 0.74550 1.0000
B64 B 1 0.50000 0.31950 0.90350 1.0000
B65 B 1 0.58950 0.64800 0.74550 1.0000
B66 B 1 0.41050 0.64800 0.74550 1.0000
B67 B 1 0.50000 0.68050 0.90350 1.0000
B68 B 1 0.41050 0.35200 0.25450 1.0000
B69 B 1 0.58950 0.35200 0.25450 1.0000
B70 B 1 0.50000 0.31950 0.09650 1.0000
B71 B 1 0.50000 0.82500 0.50000 1.0000
B72 B 1 0.64800 0.74550 0.41050 1.0000
B73 B 1 0.64800 0.74550 0.58950 1.0000
B74 B 1 0.68050 0.90350 0.50000 1.0000
B75 B 1 0.50000 0.17500 0.50000 1.0000
B76 B 1 0.35200 0.25450 0.58950 1.0000
B77 B 1 0.35200 0.25450 0.41050 1.0000
B78 B 1 0.31950 0.09650 0.50000 1.0000
B79 B 1 0.64800 0.25450 0.58950 1.0000
B80 B 1 0.64800 0.25450 0.41050 1.0000
B81 B 1 0.68050 0.09650 0.50000 1.0000
B82 B 1 0.35200 0.74550 0.41050 1.0000
B83 B 1 0.35200 0.74550 0.58950 1.0000
B84 B 1 0.31950 0.90350 0.50000 1.0000
B85 B 1 0.25000 0.25000 0.25000 1.0000
B86 B 1 0.75000 0.75000 0.75000 1.0000
B87 B 1 0.75000 0.75000 0.25000 1.0000
B88 B 1 0.25000 0.25000 0.75000 1.0000
B89 B 1 0.75000 0.25000 0.75000 1.0000
B90 B 1 0.25000 0.75000 0.25000 1.0000
B91 B 1 0.25000 0.75000 0.75000 1.0000
B92 B 1 0.75000 0.25000 0.25000 1.0000
#End of data_7_NAHCEF

data_8_ETHYLO
_chemical_name_common		'ethylene oxide hydrate'
_chemical_formula_structural	'(C2H4O)6.4(H2O)46'
_chemical_formula_sum		'Ar1 B2'
_citation_special_details	'original source structure doi: 10.1063/1.1703228'
;
File: ETHYLO.cif.
;
_cell_length_a			8.88693
_cell_length_b			8.88693
_cell_length_c			8.88693
_cell_angle_alpha		90.00000
_cell_angle_beta		90.00000
_cell_angle_gamma		90.00000
_cell_volume			701.86884
_cell_formula_units_Z		46
_symmetry_space_group_name_H-M	'P 1'
_symmetry_Int_Tables_number	1
loop_
_symmetry_equiv_pos_site_id
_symmetry_equiv_pos_as_xyz
1 x,y,z
loop_
_atom_site_label
_atom_site_type_symbol
_atom_site_symmetry_multiplicity
_atom_site_fract_x
_atom_site_fract_y
_atom_site_fract_z
_atom_site_occupancy
Ar1 Ar 1 0.00000 0.30710 0.11819 1.0000
Ar2 Ar 1 0.00000 0.69290 0.88181 1.0000
Ar3 Ar 1 0.00000 0.69290 0.11819 1.0000
Ar4 Ar 1 0.00000 0.30710 0.88181 1.0000
Ar5 Ar 1 0.11819 0.00000 0.30710 1.0000
Ar6 Ar 1 0.88181 0.00000 0.69290 1.0000
Ar7 Ar 1 0.11819 0.00000 0.69290 1.0000
Ar8 Ar 1 0.88181 0.00000 0.30710 1.0000
Ar9 Ar 1 0.30710 0.11819 0.00000 1.0000
Ar10 Ar 1 0.69290 0.88181 0.00000 1.0000
Ar11 Ar 1 0.69290 0.11819 0.00000 1.0000
Ar12 Ar 1 0.30710 0.88181 0.00000 1.0000
Ar13 Ar 1 0.80710 0.50000 0.38181 1.0000
Ar14 Ar 1 0.19290 0.50000 0.61819 1.0000
Ar15 Ar 1 0.19290 0.50000 0.38181 1.0000
Ar16 Ar 1 0.80710 0.50000 0.61819 1.0000
Ar17 Ar 1 0.50000 0.61819 0.19290 1.0000
Ar18 Ar 1 0.50000 0.38181 0.80710 1.0000
Ar19 Ar 1 0.50000 0.61819 0.80710 1.0000
Ar20 Ar 1 0.50000 0.38181 0.19290 1.0000
Ar21 Ar 1 0.61819 0.80710 0.50000 1.0000
Ar22 Ar 1 0.38181 0.19290 0.50000 1.0000
Ar23 Ar 1 0.61819 0.19290 0.50000 1.0000
Ar24 Ar 1 0.38181 0.80710 0.50000 1.0000
Ar25 Ar 1 0.00000 0.50000 0.25000 1.0000
Ar26 Ar 1 0.00000 0.50000 0.75000 1.0000
Ar27 Ar 1 0.25000 0.00000 0.50000 1.0000
Ar28 Ar 1 0.75000 0.00000 0.50000 1.0000
Ar29 Ar 1 0.50000 0.25000 0.00000 1.0000
Ar30 Ar 1 0.50000 0.75000 0.00000 1.0000
Ar31 Ar 1 0.18362 0.18362 0.18362 1.0000
Ar32 Ar 1 0.81638 0.81638 0.81638 1.0000
Ar33 Ar 1 0.81638 0.81638 0.18362 1.0000
Ar34 Ar 1 0.18362 0.18362 0.81638 1.0000
Ar35 Ar 1 0.81638 0.18362 0.81638 1.0000
Ar36 Ar 1 0.18362 0.81638 0.18362 1.0000
Ar37 Ar 1 0.18362 0.81638 0.81638 1.0000
Ar38 Ar 1 0.81638 0.18362 0.18362 1.0000
Ar39 Ar 1 0.68362 0.68362 0.31638 1.0000
Ar40 Ar 1 0.31638 0.31638 0.68362 1.0000
Ar41 Ar 1 0.31638 0.31638 0.31638 1.0000
Ar42 Ar 1 0.68362 0.68362 0.68362 1.0000
Ar43 Ar 1 0.68362 0.31638 0.68362 1.0000
Ar44 Ar 1 0.31638 0.68362 0.31638 1.0000
Ar45 Ar 1 0.31638 0.68362 0.68362 1.0000
Ar46 Ar 1 0.68362 0.31638 0.31638 1.0000
B1 B 1 0.00000 0.33500 1.00000 1.0000
B2 B 1 0.00000 0.40000 0.18168 1.0000
B3 B 1 0.08915 0.23500 0.14915 1.0000
B4 B 1 0.91085 0.23500 0.14915 1.0000
B5 B 1 0.00000 0.66500 1.00000 1.0000
B6 B 1 0.00000 0.60000 0.81832 1.0000
B7 B 1 0.91085 0.76500 0.85085 1.0000
B8 B 1 0.08915 0.76500 0.85085 1.0000
B9 B 1 0.00000 0.60000 0.18168 1.0000
B10 B 1 0.91085 0.76500 0.14915 1.0000
B11 B 1 0.08915 0.76500 0.14915 1.0000
B12 B 1 0.00000 0.40000 0.81832 1.0000
B13 B 1 0.08915 0.23500 0.85085 1.0000
B14 B 1 0.91085 0.23500 0.85085 1.0000
B15 B 1 1.00000 0.00000 0.33500 1.0000
B16 B 1 0.18168 0.00000 0.40000 1.0000
B17 B 1 0.14915 0.08915 0.23500 1.0000
B18 B 1 0.14915 0.91085 0.23500 1.0000
B19 B 1 1.00000 0.00000 0.66500 1.0000
B20 B 1 0.81832 0.00000 0.60000 1.0000
B21 B 1 0.85085 0.91085 0.76500 1.0000
B22 B 1 0.85085 0.08915 0.76500 1.0000
B23 B 1 0.18168 0.00000 0.60000 1.0000
B24 B 1 0.14915 0.08915 0.76500 1.0000
B25 B 1 0.14915 0.91085 0.76500 1.0000
B26 B 1 0.81832 0.00000 0.40000 1.0000
B27 B 1 0.85085 0.91085 0.23500 1.0000
B28 B 1 0.85085 0.08915 0.23500 1.0000
B29 B 1 0.33500 1.00000 0.00000 1.0000
B30 B 1 0.40000 0.18168 0.00000 1.0000
B31 B 1 0.23500 0.14915 0.08915 1.0000
B32 B 1 0.23500 0.14915 0.91085 1.0000
B33 B 1 0.66500 1.00000 0.00000 1.0000
B34 B 1 0.60000 0.81832 0.00000 1.0000
B35 B 1 0.76500 0.85085 0.91085 1.0000
B36 B 1 0.76500 0.85085 0.08915 1.0000
B37 B 1 0.60000 0.18168 0.00000 1.0000
B38 B 1 0.76500 0.14915 0.91085 1.0000
B39 B 1 0.76500 0.14915 0.08915 1.0000
B40 B 1 0.40000 0.81832 0.00000 1.0000
B41 B 1 0.23500 0.85085 0.08915 1.0000
B42 B 1 0.23500 0.85085 0.91085 1.0000
B43 B 1 0.83500 0.50000 0.50000 1.0000
B44 B 1 0.90000 0.50000 0.31832 1.0000
B45 B 1 0.73500 0.58915 0.35085 1.0000
B46 B 1 0.73500 0.41085 0.35085 1.0000
B47 B 1 0.16500 0.50000 0.50000 1.0000
B48 B 1 0.10000 0.50000 0.68168 1.0000
B49 B 1 0.26500 0.41085 0.64915 1.0000
B50 B 1 0.26500 0.58915 0.64915 1.0000
B51 B 1 0.10000 0.50000 0.31832 1.0000
B52 B 1 0.26500 0.41085 0.35085 1.0000
B53 B 1 0.26500 0.58915 0.35085 1.0000
B54 B 1 0.90000 0.50000 0.68168 1.0000
B55 B 1 0.73500 0.58915 0.64915 1.0000
B56 B 1 0.73500 0.41085 0.64915 1.0000
B57 B 1 0.50000 0.50000 0.16500 1.0000
B58 B 1 0.50000 0.68168 0.10000 1.0000
B59 B 1 0.58915 0.64915 0.26500 1.0000
B60 B 1 0.41085 0.64915 0.26500 1.0000
B61 B 1 0.50000 0.50000 0.83500 1.0000
B62 B 1 0.50000 0.31832 0.90000 1.0000
B63 B 1 0.41085 0.35085 0.73500 1.0000
B64 B 1 0.58915 0.35085 0.73500 1.0000
B65 B 1 0.50000 0.68168 0.90000 1.0000
B66 B 1 0.58915 0.64915 0.73500 1.0000
B67 B 1 0.41085 0.64915 0.73500 1.0000
B68 B 1 0.50000 0.31832 0.10000 1.0000
B69 B 1 0.41085 0.35085 0.26500 1.0000
B70 B 1 0.58915 0.35085 0.26500 1.0000
B71 B 1 0.50000 0.83500 0.50000 1.0000
B72 B 1 0.68168 0.90000 0.50000 1.0000
B73 B 1 0.64915 0.73500 0.41085 1.0000
B74 B 1 0.64915 0.73500 0.58915 1.0000
B75 B 1 0.50000 0.16500 0.50000 1.0000
B76 B 1 0.31832 0.10000 0.50000 1.0000
B77 B 1 0.35085 0.26500 0.58915 1.0000
B78 B 1 0.35085 0.26500 0.41085 1.0000
B79 B 1 0.68168 0.10000 0.50000 1.0000
B80 B 1 0.64915 0.26500 0.58915 1.0000
B81 B 1 0.64915 0.26500 0.41085 1.0000
B82 B 1 0.31832 0.90000 0.50000 1.0000
B83 B 1 0.35085 0.73500 0.41085 1.0000
B84 B 1 0.35085 0.73500 0.58915 1.0000
B85 B 1 0.25000 0.25000 0.25000 1.0000
B86 B 1 0.75000 0.75000 0.75000 1.0000
B87 B 1 0.75000 0.75000 0.25000 1.0000
B88 B 1 0.25000 0.25000 0.75000 1.0000
B89 B 1 0.75000 0.25000 0.75000 1.0000
B90 B 1 0.25000 0.75000 0.25000 1.0000
B91 B 1 0.25000 0.75000 0.75000 1.0000
B92 B 1 0.75000 0.25000 0.25000 1.0000
#End of data_8_ETHYLO

