data_1_EQOPAD01
_chemical_name_common		'ice-XVI'
_chemical_formula_structural	'H2O'
_chemical_formula_sum		'Ar1 B2'
_citation_special_details	'original source structure doi: 10.1038/nature14014'
;
File: EQOPAD01.cif.
;
_cell_length_a			12.73381
_cell_length_b			12.73381
_cell_length_c			12.73381
_cell_angle_alpha		90.00000
_cell_angle_beta		90.00000
_cell_angle_gamma		90.00000
_cell_volume			2064.78424
_cell_formula_units_Z		136
_symmetry_space_group_name_H-M	'P 1'
_symmetry_Int_Tables_number	1
loop_
_symmetry_equiv_pos_site_id
_symmetry_equiv_pos_as_xyz
1 x,y,z
loop_
_atom_site_label
_atom_site_type_symbol
_atom_site_symmetry_multiplicity
_atom_site_fract_x
_atom_site_fract_y
_atom_site_fract_z
_atom_site_occupancy
Ar1 Ar 1 0.87500 0.87500 0.87500 1.0000
Ar2 Ar 1 0.12500 0.12500 0.12500 1.0000
Ar3 Ar 1 0.87500 0.37500 0.37500 1.0000
Ar4 Ar 1 0.12500 0.62500 0.62500 1.0000
Ar5 Ar 1 0.37500 0.37500 0.87500 1.0000
Ar6 Ar 1 0.62500 0.62500 0.12500 1.0000
Ar7 Ar 1 0.37500 0.87500 0.37500 1.0000
Ar8 Ar 1 0.62500 0.12500 0.62500 1.0000
Ar9 Ar 1 0.78276 0.78276 0.78276 1.0000
Ar10 Ar 1 0.21724 0.21724 0.21724 1.0000
Ar11 Ar 1 0.96724 0.46724 0.28276 1.0000
Ar12 Ar 1 0.03276 0.53276 0.71724 1.0000
Ar13 Ar 1 0.46724 0.28276 0.96724 1.0000
Ar14 Ar 1 0.53276 0.71724 0.03276 1.0000
Ar15 Ar 1 0.28276 0.96724 0.46724 1.0000
Ar16 Ar 1 0.71724 0.03276 0.53276 1.0000
Ar17 Ar 1 0.53276 0.03276 0.71724 1.0000
Ar18 Ar 1 0.46724 0.96724 0.28276 1.0000
Ar19 Ar 1 0.03276 0.71724 0.53276 1.0000
Ar20 Ar 1 0.96724 0.28276 0.46724 1.0000
Ar21 Ar 1 0.71724 0.53276 0.03276 1.0000
Ar22 Ar 1 0.28276 0.46724 0.96724 1.0000
Ar23 Ar 1 0.78276 0.28276 0.28276 1.0000
Ar24 Ar 1 0.21724 0.71724 0.71724 1.0000
Ar25 Ar 1 0.96724 0.96724 0.78276 1.0000
Ar26 Ar 1 0.03276 0.03276 0.21724 1.0000
Ar27 Ar 1 0.46724 0.78276 0.46724 1.0000
Ar28 Ar 1 0.53276 0.21724 0.53276 1.0000
Ar29 Ar 1 0.53276 0.53276 0.21724 1.0000
Ar30 Ar 1 0.46724 0.46724 0.78276 1.0000
Ar31 Ar 1 0.03276 0.21724 0.03276 1.0000
Ar32 Ar 1 0.96724 0.78276 0.96724 1.0000
Ar33 Ar 1 0.28276 0.78276 0.28276 1.0000
Ar34 Ar 1 0.71724 0.21724 0.71724 1.0000
Ar35 Ar 1 0.78276 0.96724 0.96724 1.0000
Ar36 Ar 1 0.21724 0.03276 0.03276 1.0000
Ar37 Ar 1 0.21724 0.53276 0.53276 1.0000
Ar38 Ar 1 0.78276 0.46724 0.46724 1.0000
Ar39 Ar 1 0.28276 0.28276 0.78276 1.0000
Ar40 Ar 1 0.71724 0.71724 0.21724 1.0000
Ar41 Ar 1 0.81756 0.81756 0.62948 1.0000
Ar42 Ar 1 0.18244 0.18244 0.37052 1.0000
Ar43 Ar 1 0.93244 0.43244 0.12948 1.0000
Ar44 Ar 1 0.06756 0.56756 0.87052 1.0000
Ar45 Ar 1 0.43244 0.31756 0.12052 1.0000
Ar46 Ar 1 0.56756 0.68244 0.87948 1.0000
Ar47 Ar 1 0.31756 0.93244 0.62052 1.0000
Ar48 Ar 1 0.68244 0.06756 0.37948 1.0000
Ar49 Ar 1 0.62948 0.81756 0.81756 1.0000
Ar50 Ar 1 0.37052 0.18244 0.18244 1.0000
Ar51 Ar 1 0.12948 0.93244 0.43244 1.0000
Ar52 Ar 1 0.87052 0.06756 0.56756 1.0000
Ar53 Ar 1 0.12052 0.43244 0.31756 1.0000
Ar54 Ar 1 0.87948 0.56756 0.68244 1.0000
Ar55 Ar 1 0.62052 0.31756 0.93244 1.0000
Ar56 Ar 1 0.37948 0.68244 0.06756 1.0000
Ar57 Ar 1 0.81756 0.62948 0.81756 1.0000
Ar58 Ar 1 0.18244 0.37052 0.18244 1.0000
Ar59 Ar 1 0.43244 0.12948 0.93244 1.0000
Ar60 Ar 1 0.56756 0.87052 0.06756 1.0000
Ar61 Ar 1 0.31756 0.12052 0.43244 1.0000
Ar62 Ar 1 0.68244 0.87948 0.56756 1.0000
Ar63 Ar 1 0.93244 0.62052 0.31756 1.0000
Ar64 Ar 1 0.06756 0.37948 0.68244 1.0000
Ar65 Ar 1 0.56756 0.06756 0.87052 1.0000
Ar66 Ar 1 0.43244 0.93244 0.12948 1.0000
Ar67 Ar 1 0.06756 0.68244 0.37948 1.0000
Ar68 Ar 1 0.93244 0.31756 0.62052 1.0000
Ar69 Ar 1 0.68244 0.56756 0.87948 1.0000
Ar70 Ar 1 0.31756 0.43244 0.12052 1.0000
Ar71 Ar 1 0.56756 0.87948 0.68244 1.0000
Ar72 Ar 1 0.43244 0.12052 0.31756 1.0000
Ar73 Ar 1 0.68244 0.37948 0.06756 1.0000
Ar74 Ar 1 0.31756 0.62052 0.93244 1.0000
Ar75 Ar 1 0.06756 0.87052 0.56756 1.0000
Ar76 Ar 1 0.93244 0.12948 0.43244 1.0000
Ar77 Ar 1 0.37948 0.06756 0.68244 1.0000
Ar78 Ar 1 0.62052 0.93244 0.31756 1.0000
Ar79 Ar 1 0.87948 0.68244 0.56756 1.0000
Ar80 Ar 1 0.12052 0.31756 0.43244 1.0000
Ar81 Ar 1 0.87052 0.56756 0.06756 1.0000
Ar82 Ar 1 0.12948 0.43244 0.93244 1.0000
Ar83 Ar 1 0.81756 0.31756 0.12948 1.0000
Ar84 Ar 1 0.18244 0.68244 0.87052 1.0000
Ar85 Ar 1 0.93244 0.93244 0.62948 1.0000
Ar86 Ar 1 0.06756 0.06756 0.37052 1.0000
Ar87 Ar 1 0.43244 0.81756 0.62052 1.0000
Ar88 Ar 1 0.56756 0.18244 0.37948 1.0000
Ar89 Ar 1 0.62948 0.31756 0.31756 1.0000
Ar90 Ar 1 0.37052 0.68244 0.68244 1.0000
Ar91 Ar 1 0.12052 0.93244 0.81756 1.0000
Ar92 Ar 1 0.87948 0.06756 0.18244 1.0000
Ar93 Ar 1 0.62052 0.81756 0.43244 1.0000
Ar94 Ar 1 0.37948 0.18244 0.56756 1.0000
Ar95 Ar 1 0.81756 0.12948 0.31756 1.0000
Ar96 Ar 1 0.18244 0.87052 0.68244 1.0000
Ar97 Ar 1 0.43244 0.62948 0.43244 1.0000
Ar98 Ar 1 0.56756 0.37052 0.56756 1.0000
Ar99 Ar 1 0.93244 0.12052 0.81756 1.0000
Ar100 Ar 1 0.06756 0.87948 0.18244 1.0000
Ar101 Ar 1 0.56756 0.56756 0.37052 1.0000
Ar102 Ar 1 0.43244 0.43244 0.62948 1.0000
Ar103 Ar 1 0.06756 0.18244 0.87948 1.0000
Ar104 Ar 1 0.93244 0.81756 0.12052 1.0000
Ar105 Ar 1 0.56756 0.37948 0.18244 1.0000
Ar106 Ar 1 0.43244 0.62052 0.81756 1.0000
Ar107 Ar 1 0.06756 0.37052 0.06756 1.0000
Ar108 Ar 1 0.93244 0.62948 0.93244 1.0000
Ar109 Ar 1 0.37948 0.56756 0.18244 1.0000
Ar110 Ar 1 0.62052 0.43244 0.81756 1.0000
Ar111 Ar 1 0.87948 0.18244 0.06756 1.0000
Ar112 Ar 1 0.12052 0.81756 0.93244 1.0000
Ar113 Ar 1 0.31756 0.81756 0.12948 1.0000
Ar114 Ar 1 0.68244 0.18244 0.87052 1.0000
Ar115 Ar 1 0.81756 0.93244 0.12052 1.0000
Ar116 Ar 1 0.18244 0.06756 0.87948 1.0000
Ar117 Ar 1 0.12948 0.81756 0.31756 1.0000
Ar118 Ar 1 0.87052 0.18244 0.68244 1.0000
Ar119 Ar 1 0.62948 0.93244 0.93244 1.0000
Ar120 Ar 1 0.37052 0.06756 0.06756 1.0000
Ar121 Ar 1 0.31756 0.62948 0.31756 1.0000
Ar122 Ar 1 0.68244 0.37052 0.68244 1.0000
Ar123 Ar 1 0.81756 0.12052 0.93244 1.0000
Ar124 Ar 1 0.18244 0.87948 0.06756 1.0000
Ar125 Ar 1 0.18244 0.56756 0.37948 1.0000
Ar126 Ar 1 0.81756 0.43244 0.62052 1.0000
Ar127 Ar 1 0.18244 0.37948 0.56756 1.0000
Ar128 Ar 1 0.81756 0.62052 0.43244 1.0000
Ar129 Ar 1 0.37052 0.56756 0.56756 1.0000
Ar130 Ar 1 0.62948 0.43244 0.43244 1.0000
Ar131 Ar 1 0.31756 0.31756 0.62948 1.0000
Ar132 Ar 1 0.68244 0.68244 0.37052 1.0000
Ar133 Ar 1 0.12948 0.31756 0.81756 1.0000
Ar134 Ar 1 0.87052 0.68244 0.18244 1.0000
Ar135 Ar 1 0.31756 0.12948 0.81756 1.0000
Ar136 Ar 1 0.68244 0.87052 0.18244 1.0000
B1 B 1 0.82810 0.82810 0.82810 1.0000
B2 B 1 0.92190 0.92190 0.82810 1.0000
B3 B 1 0.92190 0.82810 0.92190 1.0000
B4 B 1 0.82810 0.92190 0.92190 1.0000
B5 B 1 0.17190 0.17190 0.17190 1.0000
B6 B 1 0.07810 0.07810 0.17190 1.0000
B7 B 1 0.07810 0.17190 0.07810 1.0000
B8 B 1 0.17190 0.07810 0.07810 1.0000
B9 B 1 0.92190 0.42190 0.32810 1.0000
B10 B 1 0.92190 0.32810 0.42190 1.0000
B11 B 1 0.82810 0.32810 0.32810 1.0000
B12 B 1 0.82810 0.42190 0.42190 1.0000
B13 B 1 0.07810 0.57810 0.67190 1.0000
B14 B 1 0.07810 0.67190 0.57810 1.0000
B15 B 1 0.17190 0.67190 0.67190 1.0000
B16 B 1 0.17190 0.57810 0.57810 1.0000
B17 B 1 0.42190 0.32810 0.92190 1.0000
B18 B 1 0.32810 0.42190 0.92190 1.0000
B19 B 1 0.42190 0.42190 0.82810 1.0000
B20 B 1 0.32810 0.32810 0.82810 1.0000
B21 B 1 0.57810 0.67190 0.07810 1.0000
B22 B 1 0.67190 0.57810 0.07810 1.0000
B23 B 1 0.57810 0.57810 0.17190 1.0000
B24 B 1 0.67190 0.67190 0.17190 1.0000
B25 B 1 0.32810 0.92190 0.42190 1.0000
B26 B 1 0.42190 0.92190 0.32810 1.0000
B27 B 1 0.42190 0.82810 0.42190 1.0000
B28 B 1 0.32810 0.82810 0.32810 1.0000
B29 B 1 0.67190 0.07810 0.57810 1.0000
B30 B 1 0.57810 0.07810 0.67190 1.0000
B31 B 1 0.57810 0.17190 0.57810 1.0000
B32 B 1 0.67190 0.17190 0.67190 1.0000
B33 B 1 0.79990 0.79990 0.70595 1.0000
B34 B 1 0.70595 0.79990 0.79990 1.0000
B35 B 1 0.79990 0.70595 0.79990 1.0000
B36 B 1 0.20010 0.20010 0.29405 1.0000
B37 B 1 0.29405 0.20010 0.20010 1.0000
B38 B 1 0.20010 0.29405 0.20010 1.0000
B39 B 1 0.95010 0.45010 0.20595 1.0000
B40 B 1 0.04405 0.45010 0.29990 1.0000
B41 B 1 0.95010 0.54405 0.29990 1.0000
B42 B 1 0.04990 0.54990 0.79405 1.0000
B43 B 1 0.95595 0.54990 0.70010 1.0000
B44 B 1 0.04990 0.45595 0.70010 1.0000
B45 B 1 0.45010 0.29990 0.04405 1.0000
B46 B 1 0.54405 0.29990 0.95010 1.0000
B47 B 1 0.45010 0.20595 0.95010 1.0000
B48 B 1 0.54990 0.70010 0.95595 1.0000
B49 B 1 0.45595 0.70010 0.04990 1.0000
B50 B 1 0.54990 0.79405 0.04990 1.0000
B51 B 1 0.29990 0.95010 0.54405 1.0000
B52 B 1 0.20595 0.95010 0.45010 1.0000
B53 B 1 0.29990 0.04405 0.45010 1.0000
B54 B 1 0.70010 0.04990 0.45595 1.0000
B55 B 1 0.79405 0.04990 0.54990 1.0000
B56 B 1 0.70010 0.95595 0.54990 1.0000
B57 B 1 0.54990 0.04990 0.79405 1.0000
B58 B 1 0.54990 0.95595 0.70010 1.0000
B59 B 1 0.45595 0.04990 0.70010 1.0000
B60 B 1 0.45010 0.95010 0.20595 1.0000
B61 B 1 0.45010 0.04405 0.29990 1.0000
B62 B 1 0.54405 0.95010 0.29990 1.0000
B63 B 1 0.04990 0.70010 0.45595 1.0000
B64 B 1 0.04990 0.79405 0.54990 1.0000
B65 B 1 0.95595 0.70010 0.54990 1.0000
B66 B 1 0.95010 0.29990 0.54405 1.0000
B67 B 1 0.95010 0.20595 0.45010 1.0000
B68 B 1 0.04405 0.29990 0.45010 1.0000
B69 B 1 0.70010 0.54990 0.95595 1.0000
B70 B 1 0.70010 0.45595 0.04990 1.0000
B71 B 1 0.79405 0.54990 0.04990 1.0000
B72 B 1 0.29990 0.45010 0.04405 1.0000
B73 B 1 0.29990 0.54405 0.95010 1.0000
B74 B 1 0.20595 0.45010 0.95010 1.0000
B75 B 1 0.79990 0.29990 0.20595 1.0000
B76 B 1 0.70595 0.29990 0.29990 1.0000
B77 B 1 0.79990 0.20595 0.29990 1.0000
B78 B 1 0.20010 0.70010 0.79405 1.0000
B79 B 1 0.29405 0.70010 0.70010 1.0000
B80 B 1 0.20010 0.79405 0.70010 1.0000
B81 B 1 0.95010 0.95010 0.70595 1.0000
B82 B 1 0.04405 0.95010 0.79990 1.0000
B83 B 1 0.95010 0.04405 0.79990 1.0000
B84 B 1 0.04990 0.04990 0.29405 1.0000
B85 B 1 0.95595 0.04990 0.20010 1.0000
B86 B 1 0.04990 0.95595 0.20010 1.0000
B87 B 1 0.45010 0.79990 0.54405 1.0000
B88 B 1 0.54405 0.79990 0.45010 1.0000
B89 B 1 0.45010 0.70595 0.45010 1.0000
B90 B 1 0.54990 0.20010 0.45595 1.0000
B91 B 1 0.45595 0.20010 0.54990 1.0000
B92 B 1 0.54990 0.29405 0.54990 1.0000
B93 B 1 0.54990 0.54990 0.29405 1.0000
B94 B 1 0.54990 0.45595 0.20010 1.0000
B95 B 1 0.45595 0.54990 0.20010 1.0000
B96 B 1 0.45010 0.45010 0.70595 1.0000
B97 B 1 0.45010 0.54405 0.79990 1.0000
B98 B 1 0.54405 0.45010 0.79990 1.0000
B99 B 1 0.04990 0.20010 0.95595 1.0000
B100 B 1 0.04990 0.29405 0.04990 1.0000
B101 B 1 0.95595 0.20010 0.04990 1.0000
B102 B 1 0.95010 0.79990 0.04405 1.0000
B103 B 1 0.95010 0.70595 0.95010 1.0000
B104 B 1 0.04405 0.79990 0.95010 1.0000
B105 B 1 0.29990 0.79990 0.20595 1.0000
B106 B 1 0.20595 0.79990 0.29990 1.0000
B107 B 1 0.29990 0.70595 0.29990 1.0000
B108 B 1 0.70010 0.20010 0.79405 1.0000
B109 B 1 0.79405 0.20010 0.70010 1.0000
B110 B 1 0.70010 0.29405 0.70010 1.0000
B111 B 1 0.79990 0.95010 0.04405 1.0000
B112 B 1 0.70595 0.95010 0.95010 1.0000
B113 B 1 0.79990 0.04405 0.95010 1.0000
B114 B 1 0.20010 0.04990 0.95595 1.0000
B115 B 1 0.29405 0.04990 0.04990 1.0000
B116 B 1 0.20010 0.95595 0.04990 1.0000
B117 B 1 0.20010 0.54990 0.45595 1.0000
B118 B 1 0.20010 0.45595 0.54990 1.0000
B119 B 1 0.29405 0.54990 0.54990 1.0000
B120 B 1 0.79990 0.45010 0.54405 1.0000
B121 B 1 0.79990 0.54405 0.45010 1.0000
B122 B 1 0.70595 0.45010 0.45010 1.0000
B123 B 1 0.29990 0.29990 0.70595 1.0000
B124 B 1 0.20595 0.29990 0.79990 1.0000
B125 B 1 0.29990 0.20595 0.79990 1.0000
B126 B 1 0.70010 0.70010 0.29405 1.0000
B127 B 1 0.79405 0.70010 0.20010 1.0000
B128 B 1 0.70010 0.79405 0.20010 1.0000
B129 B 1 0.75000 0.84565 0.59565 1.0000
B130 B 1 0.84565 0.75000 0.59565 1.0000
B131 B 1 0.87500 0.87500 0.62880 1.0000
B132 B 1 0.25000 0.15435 0.40435 1.0000
B133 B 1 0.15435 0.25000 0.40435 1.0000
B134 B 1 0.12500 0.12500 0.37120 1.0000
B135 B 1 0.90435 0.50000 0.09565 1.0000
B136 B 1 0.87500 0.37500 0.12880 1.0000
B137 B 1 1.00000 0.40435 0.09565 1.0000
B138 B 1 0.09565 0.50000 0.90435 1.0000
B139 B 1 0.12500 0.62500 0.87120 1.0000
B140 B 1 1.00000 0.59565 0.90435 1.0000
B141 B 1 0.40435 0.25000 0.15435 1.0000
B142 B 1 0.37500 0.37500 0.12120 1.0000
B143 B 1 0.50000 0.34565 0.15435 1.0000
B144 B 1 0.59565 0.75000 0.84565 1.0000
B145 B 1 0.62500 0.62500 0.87880 1.0000
B146 B 1 0.50000 0.65435 0.84565 1.0000
B147 B 1 0.34565 1.00000 0.65435 1.0000
B148 B 1 0.37500 0.87500 0.62120 1.0000
B149 B 1 0.25000 0.90435 0.65435 1.0000
B150 B 1 0.65435 1.00000 0.34565 1.0000
B151 B 1 0.62500 0.12500 0.37880 1.0000
B152 B 1 0.75000 0.09565 0.34565 1.0000
B153 B 1 0.59565 0.84565 0.75000 1.0000
B154 B 1 0.62880 0.87500 0.87500 1.0000
B155 B 1 0.40435 0.15435 0.25000 1.0000
B156 B 1 0.37120 0.12500 0.12500 1.0000
B157 B 1 0.09565 0.90435 0.50000 1.0000
B158 B 1 0.09565 1.00000 0.40435 1.0000
B159 B 1 0.12880 0.87500 0.37500 1.0000
B160 B 1 0.90435 0.09565 0.50000 1.0000
B161 B 1 0.90435 1.00000 0.59565 1.0000
B162 B 1 0.87120 0.12500 0.62500 1.0000
B163 B 1 0.15435 0.40435 0.25000 1.0000
B164 B 1 0.12120 0.37500 0.37500 1.0000
B165 B 1 0.15435 0.50000 0.34565 1.0000
B166 B 1 0.84565 0.59565 0.75000 1.0000
B167 B 1 0.87880 0.62500 0.62500 1.0000
B168 B 1 0.84565 0.50000 0.65435 1.0000
B169 B 1 0.65435 0.34565 1.00000 1.0000
B170 B 1 0.62120 0.37500 0.87500 1.0000
B171 B 1 0.65435 0.25000 0.90435 1.0000
B172 B 1 0.34565 0.65435 1.00000 1.0000
B173 B 1 0.37880 0.62500 0.12500 1.0000
B174 B 1 0.34565 0.75000 0.09565 1.0000
B175 B 1 0.75000 0.59565 0.84565 1.0000
B176 B 1 0.87500 0.62880 0.87500 1.0000
B177 B 1 0.25000 0.40435 0.15435 1.0000
B178 B 1 0.12500 0.37120 0.12500 1.0000
B179 B 1 0.50000 0.09565 0.90435 1.0000
B180 B 1 0.40435 0.09565 1.00000 1.0000
B181 B 1 0.37500 0.12880 0.87500 1.0000
B182 B 1 0.50000 0.90435 0.09565 1.0000
B183 B 1 0.59565 0.90435 1.00000 1.0000
B184 B 1 0.62500 0.87120 0.12500 1.0000
B185 B 1 0.37500 0.12120 0.37500 1.0000
B186 B 1 0.34565 0.15435 0.50000 1.0000
B187 B 1 0.62500 0.87880 0.62500 1.0000
B188 B 1 0.65435 0.84565 0.50000 1.0000
B189 B 1 1.00000 0.65435 0.34565 1.0000
B190 B 1 0.87500 0.62120 0.37500 1.0000
B191 B 1 0.90435 0.65435 0.25000 1.0000
B192 B 1 1.00000 0.34565 0.65435 1.0000
B193 B 1 0.12500 0.37880 0.62500 1.0000
B194 B 1 0.09565 0.34565 0.75000 1.0000
B195 B 1 0.62500 0.12500 0.87120 1.0000
B196 B 1 0.59565 1.00000 0.90435 1.0000
B197 B 1 0.37500 0.87500 0.12880 1.0000
B198 B 1 0.40435 1.00000 0.09565 1.0000
B199 B 1 0.09565 0.75000 0.34565 1.0000
B200 B 1 0.12500 0.62500 0.37880 1.0000
B201 B 1 0.90435 0.25000 0.65435 1.0000
B202 B 1 0.87500 0.37500 0.62120 1.0000
B203 B 1 0.65435 0.50000 0.84565 1.0000
B204 B 1 0.34565 0.50000 0.15435 1.0000
B205 B 1 0.50000 0.84565 0.65435 1.0000
B206 B 1 0.50000 0.15435 0.34565 1.0000
B207 B 1 0.75000 0.34565 0.09565 1.0000
B208 B 1 0.62500 0.37880 0.12500 1.0000
B209 B 1 0.25000 0.65435 0.90435 1.0000
B210 B 1 0.37500 0.62120 0.87500 1.0000
B211 B 1 1.00000 0.90435 0.59565 1.0000
B212 B 1 0.12500 0.87120 0.62500 1.0000
B213 B 1 1.00000 0.09565 0.40435 1.0000
B214 B 1 0.87500 0.12880 0.37500 1.0000
B215 B 1 0.37880 0.12500 0.62500 1.0000
B216 B 1 0.34565 0.09565 0.75000 1.0000
B217 B 1 0.62120 0.87500 0.37500 1.0000
B218 B 1 0.65435 0.90435 0.25000 1.0000
B219 B 1 0.84565 0.65435 0.50000 1.0000
B220 B 1 0.15435 0.34565 0.50000 1.0000
B221 B 1 0.90435 0.59565 1.00000 1.0000
B222 B 1 0.87120 0.62500 0.12500 1.0000
B223 B 1 0.09565 0.40435 1.00000 1.0000
B224 B 1 0.12880 0.37500 0.87500 1.0000
B225 B 1 0.84565 0.25000 0.09565 1.0000
B226 B 1 0.15435 0.75000 0.90435 1.0000
B227 B 1 0.40435 0.75000 0.65435 1.0000
B228 B 1 0.59565 0.25000 0.34565 1.0000
B229 B 1 0.59565 0.34565 0.25000 1.0000
B230 B 1 0.62880 0.37500 0.37500 1.0000
B231 B 1 0.40435 0.65435 0.75000 1.0000
B232 B 1 0.37120 0.62500 0.62500 1.0000
B233 B 1 0.15435 0.90435 0.75000 1.0000
B234 B 1 0.12120 0.87500 0.87500 1.0000
B235 B 1 0.15435 1.00000 0.84565 1.0000
B236 B 1 0.84565 0.09565 0.25000 1.0000
B237 B 1 0.87880 0.12500 0.12500 1.0000
B238 B 1 0.84565 1.00000 0.15435 1.0000
B239 B 1 0.65435 0.75000 0.40435 1.0000
B240 B 1 0.34565 0.25000 0.59565 1.0000
B241 B 1 0.50000 0.59565 0.40435 1.0000
B242 B 1 0.37500 0.62880 0.37500 1.0000
B243 B 1 0.40435 0.59565 0.50000 1.0000
B244 B 1 0.50000 0.40435 0.59565 1.0000
B245 B 1 0.62500 0.37120 0.62500 1.0000
B246 B 1 0.59565 0.40435 0.50000 1.0000
B247 B 1 1.00000 0.15435 0.84565 1.0000
B248 B 1 0.90435 0.15435 0.75000 1.0000
B249 B 1 0.87500 0.12120 0.87500 1.0000
B250 B 1 1.00000 0.84565 0.15435 1.0000
B251 B 1 0.09565 0.84565 0.25000 1.0000
B252 B 1 0.12500 0.87880 0.12500 1.0000
B253 B 1 0.59565 0.50000 0.40435 1.0000
B254 B 1 0.62500 0.62500 0.37120 1.0000
B255 B 1 0.40435 0.50000 0.59565 1.0000
B256 B 1 0.37500 0.37500 0.62880 1.0000
B257 B 1 0.12500 0.12500 0.87880 1.0000
B258 B 1 0.09565 0.25000 0.84565 1.0000
B259 B 1 0.87500 0.87500 0.12120 1.0000
B260 B 1 0.90435 0.75000 0.15435 1.0000
B261 B 1 0.34565 0.59565 0.25000 1.0000
B262 B 1 0.65435 0.40435 0.75000 1.0000
B263 B 1 0.84565 0.15435 1.00000 1.0000
B264 B 1 0.15435 0.84565 1.00000 1.0000
B265 B 1 0.25000 0.84565 0.09565 1.0000
B266 B 1 0.75000 0.15435 0.90435 1.0000
B267 B 1 0.75000 0.90435 0.15435 1.0000
B268 B 1 0.25000 0.09565 0.84565 1.0000
B269 B 1 0.25000 0.59565 0.34565 1.0000
B270 B 1 0.75000 0.40435 0.65435 1.0000
B271 B 1 0.25000 0.34565 0.59565 1.0000
B272 B 1 0.75000 0.65435 0.40435 1.0000
#End of data_1_EQOPAD01

data_2_ICSD201179
_chemical_name_common		'ice-IV'
_chemical_formula_structural	'H2O'
_chemical_formula_sum		'Ar1 B2'
_citation_special_details	'original source structure doi: 10.1063/1.442040'
;
File: ICSD201179.cif.
;
_cell_length_a			6.03132
_cell_length_b			6.03132
_cell_length_c			6.03132
_cell_angle_alpha		70.10000
_cell_angle_beta		70.10000
_cell_angle_gamma		70.10000
_cell_volume			187.62207
_cell_formula_units_Z		16
_symmetry_space_group_name_H-M	'P 1'
_symmetry_Int_Tables_number	1
loop_
_symmetry_equiv_pos_site_id
_symmetry_equiv_pos_as_xyz
1 x,y,z
loop_
_atom_site_label
_atom_site_type_symbol
_atom_site_symmetry_multiplicity
_atom_site_fract_x
_atom_site_fract_y
_atom_site_fract_z
_atom_site_occupancy
Ar1 Ar 1 0.38040 0.88910 0.76040 1.0000
Ar2 Ar 1 0.61960 0.11090 0.23960 1.0000
Ar3 Ar 1 0.76040 0.38040 0.88910 1.0000
Ar4 Ar 1 0.23960 0.61960 0.11090 1.0000
Ar5 Ar 1 0.88910 0.76040 0.38040 1.0000
Ar6 Ar 1 0.11090 0.23960 0.61960 1.0000
Ar7 Ar 1 0.61090 0.11960 0.73960 1.0000
Ar8 Ar 1 0.38910 0.88040 0.26040 1.0000
Ar9 Ar 1 0.11960 0.73960 0.61090 1.0000
Ar10 Ar 1 0.88040 0.26040 0.38910 1.0000
Ar11 Ar 1 0.73960 0.61090 0.11960 1.0000
Ar12 Ar 1 0.26040 0.38910 0.88040 1.0000
Ar13 Ar 1 0.08550 0.08550 0.08550 1.0000
Ar14 Ar 1 0.91450 0.91450 0.91450 1.0000
Ar15 Ar 1 0.41450 0.41450 0.41450 1.0000
Ar16 Ar 1 0.58550 0.58550 0.58550 1.0000
B1 B 1 0.31000 0.74000 0.95000 1.0000
B2 B 1 0.26000 0.05000 0.69000 1.0000
B3 B 1 0.53500 0.96500 0.75000 1.0000
B4 B 1 0.45500 0.75500 0.67500 1.0000
B5 B 1 0.69000 0.26000 0.05000 1.0000
B6 B 1 0.74000 0.95000 0.31000 1.0000
B7 B 1 0.46500 0.03500 0.25000 1.0000
B8 B 1 0.54500 0.24500 0.32500 1.0000
B9 B 1 0.95000 0.31000 0.74000 1.0000
B10 B 1 0.75000 0.53500 0.96500 1.0000
B11 B 1 0.67500 0.45500 0.75500 1.0000
B12 B 1 0.05000 0.69000 0.26000 1.0000
B13 B 1 0.25000 0.46500 0.03500 1.0000
B14 B 1 0.32500 0.54500 0.24500 1.0000
B15 B 1 0.96500 0.75000 0.53500 1.0000
B16 B 1 0.75500 0.67500 0.45500 1.0000
B17 B 1 0.03500 0.25000 0.46500 1.0000
B18 B 1 0.24500 0.32500 0.54500 1.0000
B19 B 1 0.76000 0.19000 0.55000 1.0000
B20 B 1 0.45000 0.24000 0.81000 1.0000
B21 B 1 0.74500 0.04500 0.82500 1.0000
B22 B 1 0.24000 0.81000 0.45000 1.0000
B23 B 1 0.55000 0.76000 0.19000 1.0000
B24 B 1 0.25500 0.95500 0.17500 1.0000
B25 B 1 0.19000 0.55000 0.76000 1.0000
B26 B 1 0.04500 0.82500 0.74500 1.0000
B27 B 1 0.81000 0.45000 0.24000 1.0000
B28 B 1 0.95500 0.17500 0.25500 1.0000
B29 B 1 0.82500 0.74500 0.04500 1.0000
B30 B 1 0.17500 0.25500 0.95500 1.0000
B31 B 1 1.00000 0.00000 0.00000 1.0000
B32 B 1 0.50000 0.50000 0.50000 1.0000
#End of data_2_ICSD201179

data_3_ICSD64776
_chemical_name_common		'ice-Ih'
_chemical_formula_structural	'H2O'
_chemical_formula_sum		'Ar1 B2'
_citation_special_details	'original source structure doi: 10.1063/1.459150'
;
File: ICSD64776.cif.
;
_cell_length_a			3.27063
_cell_length_b			3.27063
_cell_length_c			5.33201
_cell_angle_alpha		90.00000
_cell_angle_beta		90.00000
_cell_angle_gamma		120.00000
_cell_volume			49.39515
_cell_formula_units_Z		4
_symmetry_space_group_name_H-M	'P 1'
_symmetry_Int_Tables_number	1
loop_
_symmetry_equiv_pos_site_id
_symmetry_equiv_pos_as_xyz
1 x,y,z
loop_
_atom_site_label
_atom_site_type_symbol
_atom_site_symmetry_multiplicity
_atom_site_fract_x
_atom_site_fract_y
_atom_site_fract_z
_atom_site_occupancy
Ar1 Ar 1 0.33333 0.66667 0.06180 1.0000
Ar2 Ar 1 0.66667 0.33333 0.93820 1.0000
Ar3 Ar 1 0.66667 0.33333 0.56180 1.0000
Ar4 Ar 1 0.33333 0.66667 0.43820 1.0000
B1 B 1 0.50000 0.00000 0.00000 1.0000
B2 B 1 0.00000 0.50000 0.00000 1.0000
B3 B 1 0.50000 0.50000 0.00000 1.0000
B4 B 1 0.33333 0.66667 0.25000 1.0000
B5 B 1 0.66667 0.33333 0.75000 1.0000
B6 B 1 0.50000 0.00000 0.50000 1.0000
B7 B 1 0.00000 0.50000 0.50000 1.0000
B8 B 1 0.50000 0.50000 0.50000 1.0000
#End of data_3_ICSD64776

data_4_ICSD31868
_chemical_name_common		'ice-VII'
_chemical_formula_structural	'H2O'
_chemical_formula_sum		'Ar1 B2'
_citation_special_details	'original source structure doi: 10.1073/pnas.52.6.1433'
;
File: ICSD31868.cif.
;
_cell_length_a			2.30940
_cell_length_b			2.30940
_cell_length_c			2.30940
_cell_angle_alpha		90.00000
_cell_angle_beta		90.00000
_cell_angle_gamma		90.00000
_cell_volume			12.31681
_cell_formula_units_Z		2
_symmetry_space_group_name_H-M	'P 1'
_symmetry_Int_Tables_number	1
loop_
_symmetry_equiv_pos_site_id
_symmetry_equiv_pos_as_xyz
1 x,y,z
loop_
_atom_site_label
_atom_site_type_symbol
_atom_site_symmetry_multiplicity
_atom_site_fract_x
_atom_site_fract_y
_atom_site_fract_z
_atom_site_occupancy
Ar1 Ar 1 0.00000 0.00000 0.00000 1.0000
Ar2 Ar 1 0.50000 0.50000 0.50000 1.0000
B1 B 1 0.25000 0.25000 0.25000 1.0000
B2 B 1 0.75000 0.75000 0.25000 1.0000
B3 B 1 0.75000 0.25000 0.75000 1.0000
B4 B 1 0.25000 0.75000 0.75000 1.0000
#End of data_4_ICSD31868

data_5_ICSD14318
_chemical_name_common		'ice-V'
_chemical_formula_structural	'H2O'
_chemical_formula_sum		'Ar1 B2'
_citation_special_details	'original source structure doi: 10.1107/S0365110X67001409'
;
File: ICSD14318.cif.
;
_cell_length_a			6.77538
_cell_length_b			5.54082
_cell_length_c			7.60576
_cell_angle_alpha		90.00000
_cell_angle_beta		109.20000
_cell_angle_gamma		90.00000
_cell_volume			269.64668
_cell_formula_units_Z		28
_symmetry_space_group_name_H-M	'P 1'
_symmetry_Int_Tables_number	1
loop_
_symmetry_equiv_pos_site_id
_symmetry_equiv_pos_as_xyz
1 x,y,z
loop_
_atom_site_label
_atom_site_type_symbol
_atom_site_symmetry_multiplicity
_atom_site_fract_x
_atom_site_fract_y
_atom_site_fract_z
_atom_site_occupancy
Ar1 Ar 1 0.25000 0.81530 0.00000 1.0000
Ar2 Ar 1 0.75000 0.18470 0.00000 1.0000
Ar3 Ar 1 0.25000 0.31530 0.50000 1.0000
Ar4 Ar 1 0.75000 0.68470 0.50000 1.0000
Ar5 Ar 1 0.46290 0.05650 0.15440 1.0000
Ar6 Ar 1 0.53710 0.94350 0.84560 1.0000
Ar7 Ar 1 0.03710 0.05650 0.84560 1.0000
Ar8 Ar 1 0.96290 0.94350 0.15440 1.0000
Ar9 Ar 1 0.46290 0.55650 0.65440 1.0000
Ar10 Ar 1 0.53710 0.44350 0.34560 1.0000
Ar11 Ar 1 0.03710 0.55650 0.34560 1.0000
Ar12 Ar 1 0.96290 0.44350 0.65440 1.0000
Ar13 Ar 1 0.27510 0.65250 0.24770 1.0000
Ar14 Ar 1 0.72490 0.34750 0.75230 1.0000
Ar15 Ar 1 0.22490 0.65250 0.75230 1.0000
Ar16 Ar 1 0.77510 0.34750 0.24770 1.0000
Ar17 Ar 1 0.27510 0.15250 0.74770 1.0000
Ar18 Ar 1 0.72490 0.84750 0.25230 1.0000
Ar19 Ar 1 0.22490 0.15250 0.25230 1.0000
Ar20 Ar 1 0.77510 0.84750 0.74770 1.0000
Ar21 Ar 1 0.39930 0.35960 0.98540 1.0000
Ar22 Ar 1 0.60070 0.64040 0.01460 1.0000
Ar23 Ar 1 0.10070 0.35960 0.01460 1.0000
Ar24 Ar 1 0.89930 0.64040 0.98540 1.0000
Ar25 Ar 1 0.39930 0.85960 0.48540 1.0000
Ar26 Ar 1 0.60070 0.14040 0.51460 1.0000
Ar27 Ar 1 0.10070 0.85960 0.51460 1.0000
Ar28 Ar 1 0.89930 0.14040 0.48540 1.0000
B1 B 1 0.36000 0.93500 0.08000 1.0000
B2 B 1 0.14000 0.93500 0.92000 1.0000
B3 B 1 0.26500 0.73500 0.12500 1.0000
B4 B 1 0.23500 0.73500 0.87500 1.0000
B5 B 1 0.64000 0.06500 0.92000 1.0000
B6 B 1 0.86000 0.06500 0.08000 1.0000
B7 B 1 0.73500 0.26500 0.87500 1.0000
B8 B 1 0.76500 0.26500 0.12500 1.0000
B9 B 1 0.36000 0.43500 0.58000 1.0000
B10 B 1 0.14000 0.43500 0.42000 1.0000
B11 B 1 0.26500 0.23500 0.62500 1.0000
B12 B 1 0.23500 0.23500 0.37500 1.0000
B13 B 1 0.64000 0.56500 0.42000 1.0000
B14 B 1 0.86000 0.56500 0.58000 1.0000
B15 B 1 0.73500 0.76500 0.37500 1.0000
B16 B 1 0.76500 0.76500 0.62500 1.0000
B17 B 1 0.59500 0.95000 0.20500 1.0000
B18 B 1 0.34500 0.10500 0.20500 1.0000
B19 B 1 0.43000 0.21000 0.07000 1.0000
B20 B 1 0.40500 0.05000 0.79500 1.0000
B21 B 1 0.65500 0.89500 0.79500 1.0000
B22 B 1 0.57000 0.79000 0.93000 1.0000
B23 B 1 0.15500 0.10500 0.79500 1.0000
B24 B 1 0.90500 0.95000 0.79500 1.0000
B25 B 1 0.07000 0.21000 0.93000 1.0000
B26 B 1 0.84500 0.89500 0.20500 1.0000
B27 B 1 0.09500 0.05000 0.20500 1.0000
B28 B 1 0.93000 0.79000 0.07000 1.0000
B29 B 1 0.59500 0.45000 0.70500 1.0000
B30 B 1 0.34500 0.60500 0.70500 1.0000
B31 B 1 0.43000 0.71000 0.57000 1.0000
B32 B 1 0.40500 0.55000 0.29500 1.0000
B33 B 1 0.65500 0.39500 0.29500 1.0000
B34 B 1 0.57000 0.29000 0.43000 1.0000
B35 B 1 0.15500 0.60500 0.29500 1.0000
B36 B 1 0.90500 0.45000 0.29500 1.0000
B37 B 1 0.07000 0.71000 0.43000 1.0000
B38 B 1 0.84500 0.39500 0.70500 1.0000
B39 B 1 0.09500 0.55000 0.70500 1.0000
B40 B 1 0.93000 0.29000 0.57000 1.0000
B41 B 1 0.34000 0.76000 0.36500 1.0000
B42 B 1 0.66000 0.24000 0.63500 1.0000
B43 B 1 0.16000 0.76000 0.63500 1.0000
B44 B 1 0.84000 0.24000 0.36500 1.0000
B45 B 1 0.34000 0.26000 0.86500 1.0000
B46 B 1 0.66000 0.74000 0.13500 1.0000
B47 B 1 0.16000 0.26000 0.13500 1.0000
B48 B 1 0.84000 0.74000 0.86500 1.0000
B49 B 1 0.50000 0.50000 0.00000 1.0000
B50 B 1 0.25000 0.36000 0.00000 1.0000
B51 B 1 0.75000 0.64000 0.00000 1.0000
B52 B 1 0.00000 0.50000 0.00000 1.0000
B53 B 1 0.50000 0.00000 0.50000 1.0000
B54 B 1 0.25000 0.86000 0.50000 1.0000
B55 B 1 0.75000 0.14000 0.50000 1.0000
B56 B 1 1.00000 0.00000 0.50000 1.0000
#End of data_5_ICSD14318

data_6_ICSD64775
_chemical_name_common		'ice-Ic'
_chemical_formula_structural	'H2O'
_chemical_formula_sum		'Ar1 B2'
_citation_special_details	'original source structure doi: 10.1063/1.1669883'
;
File: ICSD64775.cif.
;
_cell_length_a			4.61880
_cell_length_b			4.61880
_cell_length_c			4.61880
_cell_angle_alpha		90.00000
_cell_angle_beta		90.00000
_cell_angle_gamma		90.00000
_cell_volume			98.53447
_cell_formula_units_Z		8
_symmetry_space_group_name_H-M	'P 1'
_symmetry_Int_Tables_number	1
loop_
_symmetry_equiv_pos_site_id
_symmetry_equiv_pos_as_xyz
1 x,y,z
loop_
_atom_site_label
_atom_site_type_symbol
_atom_site_symmetry_multiplicity
_atom_site_fract_x
_atom_site_fract_y
_atom_site_fract_z
_atom_site_occupancy
Ar1 Ar 1 0.00000 0.00000 0.00000 1.0000
Ar2 Ar 1 0.00000 0.50000 0.50000 1.0000
Ar3 Ar 1 0.50000 0.50000 0.00000 1.0000
Ar4 Ar 1 0.50000 0.00000 0.50000 1.0000
Ar5 Ar 1 0.75000 0.25000 0.75000 1.0000
Ar6 Ar 1 0.25000 0.25000 0.25000 1.0000
Ar7 Ar 1 0.25000 0.75000 0.75000 1.0000
Ar8 Ar 1 0.75000 0.75000 0.25000 1.0000
B1 B 1 0.87500 0.12500 0.87500 1.0000
B2 B 1 0.12500 0.12500 0.12500 1.0000
B3 B 1 0.12500 0.87500 0.87500 1.0000
B4 B 1 0.87500 0.87500 0.12500 1.0000
B5 B 1 0.87500 0.37500 0.62500 1.0000
B6 B 1 0.12500 0.37500 0.37500 1.0000
B7 B 1 0.12500 0.62500 0.62500 1.0000
B8 B 1 0.87500 0.62500 0.37500 1.0000
B9 B 1 0.62500 0.37500 0.87500 1.0000
B10 B 1 0.37500 0.37500 0.12500 1.0000
B11 B 1 0.37500 0.62500 0.87500 1.0000
B12 B 1 0.62500 0.62500 0.12500 1.0000
B13 B 1 0.62500 0.12500 0.62500 1.0000
B14 B 1 0.37500 0.12500 0.37500 1.0000
B15 B 1 0.37500 0.87500 0.62500 1.0000
B16 B 1 0.62500 0.87500 0.37500 1.0000
#End of data_6_ICSD64775

data_7_RGCCGU2016
_chemical_name_common		'ice-XVII'
_chemical_formula_structural	'H2O'
_chemical_formula_sum		'Ar1 B2'
_citation_special_details	'original source structure doi: 10.1021/acs.jpcc.6b10569'
;
File: RGCCGU2016.cif.
;
_cell_length_a			4.62101
_cell_length_b			4.62101
_cell_length_c			4.42110
_cell_angle_alpha		90.00000
_cell_angle_beta		90.00000
_cell_angle_gamma		120.00000
_cell_volume			81.75877
_cell_formula_units_Z		6
_symmetry_space_group_name_H-M	'P 1'
_symmetry_Int_Tables_number	1
loop_
_symmetry_equiv_pos_site_id
_symmetry_equiv_pos_as_xyz
1 x,y,z
loop_
_atom_site_label
_atom_site_type_symbol
_atom_site_symmetry_multiplicity
_atom_site_fract_x
_atom_site_fract_y
_atom_site_fract_z
_atom_site_occupancy
Ar1 Ar 1 0.76420 0.52840 0.75000 1.0000
Ar2 Ar 1 0.47160 0.23580 0.08333 1.0000
Ar3 Ar 1 0.76420 0.23580 0.41667 1.0000
Ar4 Ar 1 0.23580 0.47160 0.25000 1.0000
Ar5 Ar 1 0.52840 0.76420 0.58333 1.0000
Ar6 Ar 1 0.23580 0.76420 0.91667 1.0000
B1 B 1 0.61765 0.38235 0.91667 1.0000
B2 B 1 0.76470 0.38235 0.58333 1.0000
B3 B 1 0.66135 0.66135 0.66667 1.0000
B4 B 1 0.00000 0.66135 0.83333 1.0000
B5 B 1 0.61765 0.23530 0.25000 1.0000
B6 B 1 0.33865 0.33865 0.16667 1.0000
B7 B 1 0.33865 1.00000 1.00000 1.0000
B8 B 1 0.00000 0.33865 0.33333 1.0000
B9 B 1 0.66135 1.00000 0.50000 1.0000
B10 B 1 0.38235 0.61765 0.41667 1.0000
B11 B 1 0.23530 0.61765 0.08333 1.0000
B12 B 1 0.38235 0.76470 0.75000 1.0000
#End of data_7_RGCCGU2016

data_8_KFVB1984
_chemical_name_common		'ice-VI'
_chemical_formula_structural	'H2O'
_chemical_formula_sum		'Ar1 B2'
_citation_special_details	'original source structure doi: 10.1063/1.448109'
;
File: KFVB1984.cif.
;
_cell_length_a			4.53277
_cell_length_b			4.53277
_cell_length_c			4.18576
_cell_angle_alpha		90.00000
_cell_angle_beta		90.00000
_cell_angle_gamma		90.00000
_cell_volume			86.00067
_cell_formula_units_Z		10
_symmetry_space_group_name_H-M	'P 1'
_symmetry_Int_Tables_number	1
loop_
_symmetry_equiv_pos_site_id
_symmetry_equiv_pos_as_xyz
1 x,y,z
loop_
_atom_site_label
_atom_site_type_symbol
_atom_site_symmetry_multiplicity
_atom_site_fract_x
_atom_site_fract_y
_atom_site_fract_z
_atom_site_occupancy
Ar1 Ar 1 0.75000 0.25000 0.75000 1.0000
Ar2 Ar 1 0.25000 0.75000 0.25000 1.0000
Ar3 Ar 1 0.75000 0.52954 0.13394 1.0000
Ar4 Ar 1 0.25000 0.47046 0.86606 1.0000
Ar5 Ar 1 0.75000 0.97046 0.13394 1.0000
Ar6 Ar 1 0.25000 0.02954 0.86606 1.0000
Ar7 Ar 1 0.97046 0.75000 0.63394 1.0000
Ar8 Ar 1 0.02954 0.25000 0.36606 1.0000
Ar9 Ar 1 0.52954 0.75000 0.63394 1.0000
Ar10 Ar 1 0.47046 0.25000 0.36606 1.0000
B1 B 1 0.75000 0.41663 0.92485 1.0000
B2 B 1 0.75000 0.08337 0.92485 1.0000
B3 B 1 0.91663 0.25000 0.57515 1.0000
B4 B 1 0.58337 0.25000 0.57515 1.0000
B5 B 1 0.25000 0.58337 0.07515 1.0000
B6 B 1 0.25000 0.91663 0.07515 1.0000
B7 B 1 0.08337 0.75000 0.42485 1.0000
B8 B 1 0.41663 0.75000 0.42485 1.0000
B9 B 1 0.75000 0.75000 0.12488 1.0000
B10 B 1 0.91835 0.41835 0.25000 1.0000
B11 B 1 0.58165 0.41835 0.25000 1.0000
B12 B 1 0.25000 0.25000 0.87512 1.0000
B13 B 1 0.08165 0.58165 0.75000 1.0000
B14 B 1 0.41835 0.58165 0.75000 1.0000
B15 B 1 0.91835 0.08165 0.25000 1.0000
B16 B 1 0.58165 0.08165 0.25000 1.0000
B17 B 1 0.08165 0.91835 0.75000 1.0000
B18 B 1 0.41835 0.91835 0.75000 1.0000
B19 B 1 0.75000 0.75000 0.62488 1.0000
B20 B 1 0.25000 0.25000 0.37512 1.0000
#End of data_8_KFVB1984

data_9_KP1968
_chemical_name_common		'ice-III'
_chemical_formula_structural	'H2O'
_chemical_formula_sum		'Ar1 B2'
_citation_special_details	'original source structure doi: 10.1107/S0567740868004231'
;
File: KP1968.cif.
;
_cell_length_a			5.10120
_cell_length_b			5.10120
_cell_length_c			5.17700
_cell_angle_alpha		90.00000
_cell_angle_beta		90.00000
_cell_angle_gamma		90.00000
_cell_volume			134.71710
_cell_formula_units_Z		12
_symmetry_space_group_name_H-M	'P 1'
_symmetry_Int_Tables_number	1
loop_
_symmetry_equiv_pos_site_id
_symmetry_equiv_pos_as_xyz
1 x,y,z
loop_
_atom_site_label
_atom_site_type_symbol
_atom_site_symmetry_multiplicity
_atom_site_fract_x
_atom_site_fract_y
_atom_site_fract_z
_atom_site_occupancy
Ar1 Ar 1 0.10630 0.29930 0.28650 1.0000
Ar2 Ar 1 0.89370 0.70070 0.78650 1.0000
Ar3 Ar 1 0.20070 0.60630 0.53650 1.0000
Ar4 Ar 1 0.79930 0.39370 0.03650 1.0000
Ar5 Ar 1 0.39370 0.79930 0.96350 1.0000
Ar6 Ar 1 0.60630 0.20070 0.46350 1.0000
Ar7 Ar 1 0.29930 0.10630 0.71350 1.0000
Ar8 Ar 1 0.70070 0.89370 0.21350 1.0000
Ar9 Ar 1 0.38950 0.38950 0.00000 1.0000
Ar10 Ar 1 0.61050 0.61050 0.50000 1.0000
Ar11 Ar 1 0.11050 0.88950 0.25000 1.0000
Ar12 Ar 1 0.88950 0.11050 0.75000 1.0000
B1 B 1 0.15950 0.43850 0.41200 1.0000
B2 B 1 0.93850 0.34050 0.16200 1.0000
B3 B 1 0.26800 0.34550 0.14600 1.0000
B4 B 1 0.12750 0.09500 0.28000 1.0000
B5 B 1 0.06150 0.65950 0.66200 1.0000
B6 B 1 0.84050 0.56150 0.91200 1.0000
B7 B 1 0.73200 0.65450 0.64600 1.0000
B8 B 1 0.87250 0.90500 0.78000 1.0000
B9 B 1 0.40500 0.62750 0.53000 1.0000
B10 B 1 0.15450 0.76800 0.39600 1.0000
B11 B 1 0.59500 0.37250 0.03000 1.0000
B12 B 1 0.84550 0.23200 0.89600 1.0000
B13 B 1 0.34050 0.93850 0.83800 1.0000
B14 B 1 0.56150 0.84050 0.08800 1.0000
B15 B 1 0.37250 0.59500 0.97000 1.0000
B16 B 1 0.23200 0.84550 0.10400 1.0000
B17 B 1 0.43850 0.15950 0.58800 1.0000
B18 B 1 0.65950 0.06150 0.33800 1.0000
B19 B 1 0.62750 0.40500 0.47000 1.0000
B20 B 1 0.76800 0.15450 0.60400 1.0000
B21 B 1 0.34550 0.26800 0.85400 1.0000
B22 B 1 0.09500 0.12750 0.72000 1.0000
B23 B 1 0.65450 0.73200 0.35400 1.0000
B24 B 1 0.90500 0.87250 0.22000 1.0000
#End of data_9_KP1968

data_10_KSTFH1999
_chemical_name_common		'ice-XII'
_chemical_formula_structural	'H2O'
_chemical_formula_sum		'Ar1 B2'
_citation_special_details	'original source structure doi: 10.1038/17717'
;
File: KSTFH1999.cif.
;
_cell_length_a			5.98756
_cell_length_b			5.98756
_cell_length_c			2.91337
_cell_angle_alpha		90.00000
_cell_angle_beta		90.00000
_cell_angle_gamma		90.00000
_cell_volume			104.44693
_cell_formula_units_Z		12
_symmetry_space_group_name_H-M	'P 1'
_symmetry_Int_Tables_number	1
loop_
_symmetry_equiv_pos_site_id
_symmetry_equiv_pos_as_xyz
1 x,y,z
loop_
_atom_site_label
_atom_site_type_symbol
_atom_site_symmetry_multiplicity
_atom_site_fract_x
_atom_site_fract_y
_atom_site_fract_z
_atom_site_occupancy
Ar1 Ar 1 0.00000 0.00000 0.00000 1.0000
Ar2 Ar 1 0.50000 0.00000 0.75000 1.0000
Ar3 Ar 1 0.50000 0.50000 0.50000 1.0000
Ar4 Ar 1 0.00000 0.50000 0.25000 1.0000
Ar5 Ar 1 0.36110 0.25000 0.12500 1.0000
Ar6 Ar 1 0.63890 0.75000 0.12500 1.0000
Ar7 Ar 1 0.25000 0.63890 0.87500 1.0000
Ar8 Ar 1 0.75000 0.36110 0.87500 1.0000
Ar9 Ar 1 0.13890 0.25000 0.62500 1.0000
Ar10 Ar 1 0.86110 0.75000 0.62500 1.0000
Ar11 Ar 1 0.75000 0.13890 0.37500 1.0000
Ar12 Ar 1 0.25000 0.86110 0.37500 1.0000
B1 B 1 0.05550 0.12500 0.80300 1.0000
B2 B 1 0.94450 0.87500 0.80300 1.0000
B3 B 1 0.87500 0.05550 0.19700 1.0000
B4 B 1 0.12500 0.94450 0.19700 1.0000
B5 B 1 0.44450 0.12500 0.94700 1.0000
B6 B 1 0.55550 0.87500 0.94700 1.0000
B7 B 1 0.62500 0.05550 0.55300 1.0000
B8 B 1 0.37500 0.94450 0.55300 1.0000
B9 B 1 0.44450 0.37500 0.30300 1.0000
B10 B 1 0.55550 0.62500 0.30300 1.0000
B11 B 1 0.37500 0.55550 0.69700 1.0000
B12 B 1 0.62500 0.44450 0.69700 1.0000
B13 B 1 0.12500 0.55550 0.05300 1.0000
B14 B 1 0.87500 0.44450 0.05300 1.0000
B15 B 1 0.05550 0.37500 0.44700 1.0000
B16 B 1 0.94450 0.62500 0.44700 1.0000
B17 B 1 0.25000 0.21610 0.37500 1.0000
B18 B 1 0.25000 0.28390 0.87500 1.0000
B19 B 1 0.75000 0.78390 0.37500 1.0000
B20 B 1 0.75000 0.71610 0.87500 1.0000
B21 B 1 0.21610 0.75000 0.62500 1.0000
B22 B 1 0.28390 0.75000 0.12500 1.0000
B23 B 1 0.78390 0.25000 0.62500 1.0000
B24 B 1 0.71610 0.25000 0.12500 1.0000
#End of data_10_KSTFH1999

