data_1_ICSD166447
_chemical_name_common		'ice-XV'
_chemical_formula_structural	'H2O'
_chemical_formula_sum		'Ar1 B2'
_citation_special_details	'original source structure doi: 10.1103/PhysRevLett.103.105701'
;
File: ICSD166447.cif.
;
_cell_length_a			7.02168
_cell_length_b			7.03464
_cell_length_c			6.52370
_cell_angle_alpha		90.06000
_cell_angle_beta		89.99000
_cell_angle_gamma		89.92000
_cell_volume			322.23768
_cell_formula_units_Z		10
_symmetry_space_group_name_H-M	'P 1'
_symmetry_Int_Tables_number	1
loop_
_symmetry_equiv_pos_site_id
_symmetry_equiv_pos_as_xyz
1 x,y,z
loop_
_atom_site_label
_atom_site_type_symbol
_atom_site_symmetry_multiplicity
_atom_site_fract_x
_atom_site_fract_y
_atom_site_fract_z
_atom_site_occupancy
Ar1 Ar 1 0.27500 0.25150 0.24650 1.0000
Ar2 Ar 1 0.72500 0.74850 0.75350 1.0000
Ar3 Ar 1 0.23510 0.52010 0.61930 1.0000
Ar4 Ar 1 0.76490 0.47990 0.38070 1.0000
Ar5 Ar 1 0.24740 0.96670 0.62060 1.0000
Ar6 Ar 1 0.75260 0.03330 0.37940 1.0000
Ar7 Ar 1 0.96100 0.23940 0.87500 1.0000
Ar8 Ar 1 0.03900 0.76060 0.12500 1.0000
Ar9 Ar 1 0.52540 0.27150 0.84280 1.0000
Ar10 Ar 1 0.47460 0.72850 0.15720 1.0000
B1 B 1 0.45070 0.26110 0.01720 1.0000
B2 B 1 0.54930 0.73890 0.98280 1.0000
B3 B 1 0.02790 0.27550 0.00460 1.0000
B4 B 1 0.97210 0.72450 0.99540 1.0000
B5 B 1 0.26160 0.34930 0.37280 1.0000
B6 B 1 0.73840 0.65070 0.62720 1.0000
B7 B 1 0.23490 0.11840 0.33580 1.0000
B8 B 1 0.76510 0.88160 0.66420 1.0000
B9 B 1 0.28440 0.67610 0.63840 1.0000
B10 B 1 0.71560 0.32390 0.36160 1.0000
B11 B 1 0.67840 0.25680 0.88450 1.0000
B12 B 1 0.32160 0.74320 0.11550 1.0000
B13 B 1 0.36790 0.45590 0.70730 1.0000
B14 B 1 0.63210 0.54410 0.29270 1.0000
B15 B 1 0.38660 0.01340 0.67790 1.0000
B16 B 1 0.61340 0.98660 0.32210 1.0000
B17 B 1 0.14130 0.04440 0.70090 1.0000
B18 B 1 0.85870 0.95560 0.29910 1.0000
B19 B 1 0.04340 0.34390 0.76120 1.0000
B20 B 1 0.95660 0.65610 0.23880 1.0000
#End of data_1_ICSD166447

data_2_ICSD15907
_chemical_name_common		'ice-II'
_chemical_formula_structural	'H2O'
_chemical_formula_sum		'Ar1 B2'
_citation_special_details	'original source structure doi: 10.1107/S0365110X64003553'
;
File: ICSD15907.cif.
;
_cell_length_a			7.72338
_cell_length_b			7.72338
_cell_length_c			7.72338
_cell_angle_alpha		113.10000
_cell_angle_beta		113.10000
_cell_angle_gamma		113.10000
_cell_volume			297.65646
_cell_formula_units_Z		12
_symmetry_space_group_name_H-M	'P 1'
_symmetry_Int_Tables_number	1
loop_
_symmetry_equiv_pos_site_id
_symmetry_equiv_pos_as_xyz
1 x,y,z
loop_
_atom_site_label
_atom_site_type_symbol
_atom_site_symmetry_multiplicity
_atom_site_fract_x
_atom_site_fract_y
_atom_site_fract_z
_atom_site_occupancy
Ar1 Ar 1 0.27300 0.02400 0.85400 1.0000
Ar2 Ar 1 0.72700 0.97600 0.14600 1.0000
Ar3 Ar 1 0.85400 0.27300 0.02400 1.0000
Ar4 Ar 1 0.14600 0.72700 0.97600 1.0000
Ar5 Ar 1 0.02400 0.85400 0.27300 1.0000
Ar6 Ar 1 0.97600 0.14600 0.72700 1.0000
Ar7 Ar 1 0.47800 0.75000 0.33200 1.0000
Ar8 Ar 1 0.52200 0.25000 0.66800 1.0000
Ar9 Ar 1 0.33200 0.47800 0.75000 1.0000
Ar10 Ar 1 0.66800 0.52200 0.25000 1.0000
Ar11 Ar 1 0.75000 0.33200 0.47800 1.0000
Ar12 Ar 1 0.25000 0.66800 0.52200 1.0000
B1 B 1 0.16500 0.06900 0.81000 1.0000
B2 B 1 0.83500 0.93100 0.19000 1.0000
B3 B 1 0.81000 0.16500 0.06900 1.0000
B4 B 1 0.19000 0.83500 0.93100 1.0000
B5 B 1 0.06900 0.81000 0.16500 1.0000
B6 B 1 0.93100 0.19000 0.83500 1.0000
B7 B 1 0.41300 0.20500 0.99700 1.0000
B8 B 1 0.58700 0.79500 0.00300 1.0000
B9 B 1 0.99700 0.41300 0.20500 1.0000
B10 B 1 0.00300 0.58700 0.79500 1.0000
B11 B 1 0.20500 0.99700 0.41300 1.0000
B12 B 1 0.79500 0.00300 0.58700 1.0000
B13 B 1 0.71900 0.40100 0.39500 1.0000
B14 B 1 0.28100 0.59900 0.60500 1.0000
B15 B 1 0.39500 0.71900 0.40100 1.0000
B16 B 1 0.60500 0.28100 0.59900 1.0000
B17 B 1 0.40100 0.39500 0.71900 1.0000
B18 B 1 0.59900 0.60500 0.28100 1.0000
B19 B 1 0.74100 0.20300 0.36000 1.0000
B20 B 1 0.25900 0.79700 0.64000 1.0000
B21 B 1 0.36000 0.74100 0.20300 1.0000
B22 B 1 0.64000 0.25900 0.79700 1.0000
B23 B 1 0.20300 0.36000 0.74100 1.0000
B24 B 1 0.79700 0.64000 0.25900 1.0000
#End of data_2_ICSD15907

data_3_FHYYI2005
_chemical_name_common		'ice-XI'
_chemical_formula_structural	'H2O'
_chemical_formula_sum		'Ar1 B2'
_citation_special_details	'original source structure doi: 10.1016/j.jcrysgro.2005.04.105'
;
File: FHYYI2005.cif.
;
_cell_length_a			4.75558
_cell_length_b			8.23720
_cell_length_c			7.74093
_cell_angle_alpha		90.00000
_cell_angle_beta		90.00000
_cell_angle_gamma		90.00000
_cell_volume			303.23254
_cell_formula_units_Z		8
_symmetry_space_group_name_H-M	'P 1'
_symmetry_Int_Tables_number	1
loop_
_symmetry_equiv_pos_site_id
_symmetry_equiv_pos_as_xyz
1 x,y,z
loop_
_atom_site_label
_atom_site_type_symbol
_atom_site_symmetry_multiplicity
_atom_site_fract_x
_atom_site_fract_y
_atom_site_fract_z
_atom_site_occupancy
Ar1 Ar 1 0.00000 0.66480 0.06310 1.0000
Ar2 Ar 1 0.00000 0.33520 0.56310 1.0000
Ar3 Ar 1 0.50000 0.16480 0.06310 1.0000
Ar4 Ar 1 0.50000 0.83520 0.56310 1.0000
Ar5 Ar 1 0.50000 0.82550 0.93690 1.0000
Ar6 Ar 1 0.50000 0.17450 0.43690 1.0000
Ar7 Ar 1 0.00000 0.32550 0.93690 1.0000
Ar8 Ar 1 0.00000 0.67450 0.43690 1.0000
B1 B 1 0.00000 0.66360 0.19630 1.0000
B2 B 1 0.00000 0.33640 0.69630 1.0000
B3 B 1 0.50000 0.16360 0.19630 1.0000
B4 B 1 0.50000 0.83640 0.69630 1.0000
B5 B 1 0.00000 0.53630 0.01830 1.0000
B6 B 1 0.00000 0.46370 0.51830 1.0000
B7 B 1 0.50000 0.03630 0.01830 1.0000
B8 B 1 0.50000 0.96370 0.51830 1.0000
B9 B 1 0.67660 0.77480 0.98170 1.0000
B10 B 1 0.32340 0.22520 0.48170 1.0000
B11 B 1 0.67660 0.22520 0.48170 1.0000
B12 B 1 0.32340 0.77480 0.98170 1.0000
B13 B 1 0.17660 0.27480 0.98170 1.0000
B14 B 1 0.82340 0.72520 0.48170 1.0000
B15 B 1 0.17660 0.72520 0.48170 1.0000
B16 B 1 0.82340 0.27480 0.98170 1.0000
#End of data_3_FHYYI2005

data_4_ICSD44102
_chemical_name_common		'ice-VIII'
_chemical_formula_structural	'H2O'
_chemical_formula_sum		'Ar1 B2'
_citation_special_details	'original source structure doi: 10.1103/PhysRevB.49.12540'
;
File: ICSD44102.cif.
;
_cell_length_a			4.77387
_cell_length_b			4.77387
_cell_length_c			7.04397
_cell_angle_alpha		90.00000
_cell_angle_beta		90.00000
_cell_angle_gamma		90.00000
_cell_volume			160.53069
_cell_formula_units_Z		8
_symmetry_space_group_name_H-M	'P 1'
_symmetry_Int_Tables_number	1
loop_
_symmetry_equiv_pos_site_id
_symmetry_equiv_pos_as_xyz
1 x,y,z
loop_
_atom_site_label
_atom_site_type_symbol
_atom_site_symmetry_multiplicity
_atom_site_fract_x
_atom_site_fract_y
_atom_site_fract_z
_atom_site_occupancy
Ar1 Ar 1 0.00000 0.25000 0.10800 1.0000
Ar2 Ar 1 0.00000 0.75000 0.89200 1.0000
Ar3 Ar 1 0.50000 0.75000 0.60800 1.0000
Ar4 Ar 1 0.50000 0.25000 0.39200 1.0000
Ar5 Ar 1 0.00000 0.75000 0.35800 1.0000
Ar6 Ar 1 0.00000 0.25000 0.64200 1.0000
Ar7 Ar 1 0.50000 0.25000 0.85800 1.0000
Ar8 Ar 1 0.50000 0.75000 0.14200 1.0000
B1 B 1 0.00000 0.41700 0.19370 1.0000
B2 B 1 0.00000 0.58300 0.80630 1.0000
B3 B 1 0.50000 0.58300 0.69370 1.0000
B4 B 1 0.50000 0.41700 0.30630 1.0000
B5 B 1 0.83300 0.75000 0.44370 1.0000
B6 B 1 0.16700 0.25000 0.55630 1.0000
B7 B 1 0.66700 0.25000 0.94370 1.0000
B8 B 1 0.33300 0.75000 0.05630 1.0000
B9 B 1 0.66700 0.75000 0.05630 1.0000
B10 B 1 0.33300 0.25000 0.94370 1.0000
B11 B 1 0.83300 0.25000 0.55630 1.0000
B12 B 1 0.16700 0.75000 0.44370 1.0000
B13 B 1 0.50000 0.91700 0.69370 1.0000
B14 B 1 0.50000 0.08300 0.30630 1.0000
B15 B 1 0.00000 0.08300 0.19370 1.0000
B16 B 1 0.00000 0.91700 0.80630 1.0000
#End of data_4_ICSD44102

data_5_ICSD49810
_chemical_name_common		'ice-IX'
_chemical_formula_structural	'H2O'
_chemical_formula_sum		'Ar1 B2'
_citation_special_details	'original source structure doi: 10.1063/1.1679238'
;
File: ICSD49810.cif.
;
_cell_length_a			6.92972
_cell_length_b			6.92972
_cell_length_c			7.03269
_cell_angle_alpha		90.00000
_cell_angle_beta		90.00000
_cell_angle_gamma		90.00000
_cell_volume			337.71673
_cell_formula_units_Z		12
_symmetry_space_group_name_H-M	'P 1'
_symmetry_Int_Tables_number	1
loop_
_symmetry_equiv_pos_site_id
_symmetry_equiv_pos_as_xyz
1 x,y,z
loop_
_atom_site_label
_atom_site_type_symbol
_atom_site_symmetry_multiplicity
_atom_site_fract_x
_atom_site_fract_y
_atom_site_fract_z
_atom_site_occupancy
Ar1 Ar 1 0.10923 0.30153 0.28584 1.0000
Ar2 Ar 1 0.89077 0.69847 0.78584 1.0000
Ar3 Ar 1 0.19847 0.60923 0.53584 1.0000
Ar4 Ar 1 0.80153 0.39077 0.03584 1.0000
Ar5 Ar 1 0.39077 0.80153 0.96416 1.0000
Ar6 Ar 1 0.60923 0.19847 0.46416 1.0000
Ar7 Ar 1 0.30153 0.10923 0.71416 1.0000
Ar8 Ar 1 0.69847 0.89077 0.21416 1.0000
Ar9 Ar 1 0.39263 0.39263 0.00000 1.0000
Ar10 Ar 1 0.60737 0.60737 0.50000 1.0000
Ar11 Ar 1 0.10737 0.89263 0.25000 1.0000
Ar12 Ar 1 0.89263 0.10737 0.75000 1.0000
B1 B 1 0.87570 0.33213 0.21374 1.0000
B2 B 1 0.12430 0.66787 0.71374 1.0000
B3 B 1 0.16787 0.37570 0.46374 1.0000
B4 B 1 0.83213 0.62430 0.96374 1.0000
B5 B 1 0.62430 0.83213 0.03626 1.0000
B6 B 1 0.37570 0.16787 0.53626 1.0000
B7 B 1 0.33213 0.87570 0.78626 1.0000
B8 B 1 0.66787 0.12430 0.28626 1.0000
B9 B 1 0.11383 0.15773 0.29684 1.0000
B10 B 1 0.88617 0.84227 0.79684 1.0000
B11 B 1 0.34227 0.61383 0.54684 1.0000
B12 B 1 0.65773 0.38617 0.04684 1.0000
B13 B 1 0.38617 0.65773 0.95316 1.0000
B14 B 1 0.61383 0.34227 0.45316 1.0000
B15 B 1 0.15773 0.11383 0.70316 1.0000
B16 B 1 0.84227 0.88617 0.20316 1.0000
B17 B 1 0.30024 0.35943 0.10574 1.0000
B18 B 1 0.69976 0.64057 0.60574 1.0000
B19 B 1 0.14057 0.80024 0.35574 1.0000
B20 B 1 0.85943 0.19976 0.85574 1.0000
B21 B 1 0.19976 0.85943 0.14426 1.0000
B22 B 1 0.80024 0.14057 0.64426 1.0000
B23 B 1 0.35943 0.30024 0.89426 1.0000
B24 B 1 0.64057 0.69976 0.39426 1.0000
#End of data_5_ICSD49810

data_6_ICSD155542
_chemical_name_common		'ice-XIII'
_chemical_formula_structural	'H2O'
_chemical_formula_sum		'Ar1 B2'
_citation_special_details	'original source structure doi: 10.1126/science.1123896'
;
File: ICSD155542.cif.
;
_cell_length_a			9.83354
_cell_length_b			7.95093
_cell_length_c			10.95642
_cell_angle_alpha		90.00000
_cell_angle_beta		109.68730
_cell_angle_gamma		90.00000
_cell_volume			806.56197
_cell_formula_units_Z		28
_symmetry_space_group_name_H-M	'P 1'
_symmetry_Int_Tables_number	1
loop_
_symmetry_equiv_pos_site_id
_symmetry_equiv_pos_as_xyz
1 x,y,z
loop_
_atom_site_label
_atom_site_type_symbol
_atom_site_symmetry_multiplicity
_atom_site_fract_x
_atom_site_fract_y
_atom_site_fract_z
_atom_site_occupancy
Ar1 Ar 1 0.25410 0.56290 0.25170 1.0000
Ar2 Ar 1 0.74590 0.43710 0.74830 1.0000
Ar3 Ar 1 0.24590 0.06290 0.74830 1.0000
Ar4 Ar 1 0.75410 0.93710 0.25170 1.0000
Ar5 Ar 1 0.47710 0.79920 0.40890 1.0000
Ar6 Ar 1 0.52290 0.20080 0.59110 1.0000
Ar7 Ar 1 0.02290 0.29920 0.59110 1.0000
Ar8 Ar 1 0.97710 0.70080 0.40890 1.0000
Ar9 Ar 1 0.05030 0.80820 0.09410 1.0000
Ar10 Ar 1 0.94970 0.19180 0.90590 1.0000
Ar11 Ar 1 0.44970 0.30820 0.90590 1.0000
Ar12 Ar 1 0.55030 0.69180 0.09410 1.0000
Ar13 Ar 1 0.26130 0.40450 0.49920 1.0000
Ar14 Ar 1 0.73870 0.59550 0.50080 1.0000
Ar15 Ar 1 0.23870 0.90450 0.50080 1.0000
Ar16 Ar 1 0.76130 0.09550 0.49920 1.0000
Ar17 Ar 1 0.21130 0.40290 0.00340 1.0000
Ar18 Ar 1 0.78870 0.59710 0.99660 1.0000
Ar19 Ar 1 0.28870 0.90290 0.99660 1.0000
Ar20 Ar 1 0.71130 0.09710 0.00340 1.0000
Ar21 Ar 1 0.41470 0.11030 0.23360 1.0000
Ar22 Ar 1 0.58530 0.88970 0.76640 1.0000
Ar23 Ar 1 0.08530 0.61030 0.76640 1.0000
Ar24 Ar 1 0.91470 0.38970 0.23360 1.0000
Ar25 Ar 1 0.12450 0.11420 0.26430 1.0000
Ar26 Ar 1 0.87550 0.88580 0.73570 1.0000
Ar27 Ar 1 0.37550 0.61420 0.73570 1.0000
Ar28 Ar 1 0.62450 0.38580 0.26430 1.0000
B1 B 1 0.34440 0.64270 0.30080 1.0000
B2 B 1 0.65560 0.35730 0.69920 1.0000
B3 B 1 0.15560 0.14270 0.69920 1.0000
B4 B 1 0.84440 0.85730 0.30080 1.0000
B5 B 1 0.24580 0.49420 0.32990 1.0000
B6 B 1 0.75420 0.50580 0.67010 1.0000
B7 B 1 0.25420 0.99420 0.67010 1.0000
B8 B 1 0.74580 0.00580 0.32990 1.0000
B9 B 1 0.10740 0.71870 0.15630 1.0000
B10 B 1 0.89260 0.28130 0.84370 1.0000
B11 B 1 0.39260 0.21870 0.84370 1.0000
B12 B 1 0.60740 0.78130 0.15630 1.0000
B13 B 1 0.48200 0.90750 0.35580 1.0000
B14 B 1 0.51800 0.09250 0.64420 1.0000
B15 B 1 0.01800 0.40750 0.64420 1.0000
B16 B 1 0.98200 0.59250 0.35580 1.0000
B17 B 1 0.57630 0.74990 0.44370 1.0000
B18 B 1 0.42370 0.25010 0.55630 1.0000
B19 B 1 0.92370 0.24990 0.55630 1.0000
B20 B 1 0.07630 0.75010 0.44370 1.0000
B21 B 1 0.94860 0.75080 0.04780 1.0000
B22 B 1 0.05140 0.24920 0.95220 1.0000
B23 B 1 0.55140 0.25080 0.95220 1.0000
B24 B 1 0.44860 0.74920 0.04780 1.0000
B25 B 1 0.23720 0.45430 0.09890 1.0000
B26 B 1 0.76280 0.54570 0.90110 1.0000
B27 B 1 0.26280 0.95430 0.90110 1.0000
B28 B 1 0.73720 0.04570 0.09890 1.0000
B29 B 1 0.30430 0.49040 0.57770 1.0000
B30 B 1 0.69570 0.50960 0.42230 1.0000
B31 B 1 0.19570 0.99040 0.42230 1.0000
B32 B 1 0.80430 0.00960 0.57770 1.0000
B33 B 1 0.17080 0.35550 0.51370 1.0000
B34 B 1 0.82920 0.64450 0.48630 1.0000
B35 B 1 0.32920 0.85550 0.48630 1.0000
B36 B 1 0.67080 0.14450 0.51370 1.0000
B37 B 1 0.30720 0.37370 0.99040 1.0000
B38 B 1 0.69280 0.62630 0.00960 1.0000
B39 B 1 0.19280 0.87370 0.00960 1.0000
B40 B 1 0.80720 0.12630 0.99040 1.0000
B41 B 1 0.07810 0.01940 0.19890 1.0000
B42 B 1 0.92190 0.98060 0.80110 1.0000
B43 B 1 0.42190 0.51940 0.80110 1.0000
B44 B 1 0.57810 0.48060 0.19890 1.0000
B45 B 1 0.32500 0.13740 0.25540 1.0000
B46 B 1 0.67500 0.86260 0.74460 1.0000
B47 B 1 0.17500 0.63740 0.74460 1.0000
B48 B 1 0.82500 0.36260 0.25540 1.0000
B49 B 1 0.38230 0.04960 0.14670 1.0000
B50 B 1 0.61770 0.95040 0.85330 1.0000
B51 B 1 0.11770 0.54960 0.85330 1.0000
B52 B 1 0.88230 0.45040 0.14670 1.0000
B53 B 1 0.05090 0.20820 0.25480 1.0000
B54 B 1 0.94910 0.79180 0.74520 1.0000
B55 B 1 0.44910 0.70820 0.74520 1.0000
B56 B 1 0.55090 0.29180 0.25480 1.0000
#End of data_6_ICSD155542

