data_1_ICSD26152
_chemical_name_common		'gamma-ZnCl2'
_chemical_formula_structural	'ZnCl2'
_chemical_formula_sum		'Ar1 B2'
_citation_special_details	'original source structure doi: 10.1524/zkri.1961.115.5-6.373'
;
File: ICSD26152.cif.
;
_cell_length_a			1.62234
_cell_length_b			1.62234
_cell_length_c			4.67848
_cell_angle_alpha		90.00000
_cell_angle_beta		90.00000
_cell_angle_gamma		90.00000
_cell_volume			12.31371
_cell_formula_units_Z		2
_symmetry_space_group_name_H-M	'P 1'
_symmetry_Int_Tables_number	1
loop_
_symmetry_equiv_pos_site_id
_symmetry_equiv_pos_as_xyz
1 x,y,z
loop_
_atom_site_label
_atom_site_type_symbol
_atom_site_symmetry_multiplicity
_atom_site_fract_x
_atom_site_fract_y
_atom_site_fract_z
_atom_site_occupancy
Ar1 Ar 1 0.00000 0.00000 0.00000 1.0000
Ar2 Ar 1 0.50000 0.50000 0.50000 1.0000
B1 B 1 0.00000 0.50000 0.12500 1.0000
B2 B 1 0.00000 0.50000 0.62500 1.0000
B3 B 1 0.50000 0.00000 0.37500 1.0000
B4 B 1 0.50000 0.00000 0.87500 1.0000
#End of data_1_ICSD26152

data_2_ICSD291208
_chemical_name_common		'SiS2'
_chemical_formula_structural	'SiS2'
_chemical_formula_sum		'Ar1 B2'
_citation_special_details	'original source structure doi: 10.1021/ic501825r'
;
File: ICSD291208.cif.
;
_cell_length_a			4.47519
_cell_length_b			2.60748
_cell_length_c			2.60349
_cell_angle_alpha		90.00000
_cell_angle_beta		90.00000
_cell_angle_gamma		90.00000
_cell_volume			30.38002
_cell_formula_units_Z		4
_symmetry_space_group_name_H-M	'P 1'
_symmetry_Int_Tables_number	1
loop_
_symmetry_equiv_pos_site_id
_symmetry_equiv_pos_as_xyz
1 x,y,z
loop_
_atom_site_label
_atom_site_type_symbol
_atom_site_symmetry_multiplicity
_atom_site_fract_x
_atom_site_fract_y
_atom_site_fract_z
_atom_site_occupancy
Ar1 Ar 1 0.00000 0.00000 0.25000 1.0000
Ar2 Ar 1 0.00000 0.00000 0.75000 1.0000
Ar3 Ar 1 0.50000 0.50000 0.75000 1.0000
Ar4 Ar 1 0.50000 0.50000 0.25000 1.0000
B1 B 1 0.11826 0.20875 0.00000 1.0000
B2 B 1 0.88174 0.79125 0.00000 1.0000
B3 B 1 0.38174 0.70875 0.00000 1.0000
B4 B 1 0.61826 0.29125 0.00000 1.0000
B5 B 1 0.61826 0.70875 0.50000 1.0000
B6 B 1 0.38174 0.29125 0.50000 1.0000
B7 B 1 0.88174 0.20875 0.50000 1.0000
B8 B 1 0.11826 0.79125 0.50000 1.0000
#End of data_2_ICSD291208

data_3_ICSD92583
_chemical_name_common		'alpha-BeCl2'
_chemical_formula_structural	'BeCl2'
_chemical_formula_sum		'Ar1 B2'
_citation_special_details	'original source structure doi: not available'
;
File: ICSD92583.cif.
;
_cell_length_a			2.60860
_cell_length_b			4.84060
_cell_length_c			2.57998
_cell_angle_alpha		90.00000
_cell_angle_beta		90.00000
_cell_angle_gamma		90.00000
_cell_volume			32.57789
_cell_formula_units_Z		4
_symmetry_space_group_name_H-M	'P 1'
_symmetry_Int_Tables_number	1
loop_
_symmetry_equiv_pos_site_id
_symmetry_equiv_pos_as_xyz
1 x,y,z
loop_
_atom_site_label
_atom_site_type_symbol
_atom_site_symmetry_multiplicity
_atom_site_fract_x
_atom_site_fract_y
_atom_site_fract_z
_atom_site_occupancy
Ar1 Ar 1 0.00000 0.00000 0.25000 1.0000
Ar2 Ar 1 0.00000 0.00000 0.75000 1.0000
Ar3 Ar 1 0.50000 0.50000 0.75000 1.0000
Ar4 Ar 1 0.50000 0.50000 0.25000 1.0000
B1 B 1 0.20700 0.11171 0.00000 1.0000
B2 B 1 0.79300 0.88829 0.00000 1.0000
B3 B 1 0.29300 0.61171 0.00000 1.0000
B4 B 1 0.70700 0.38829 0.00000 1.0000
B5 B 1 0.70700 0.61171 0.50000 1.0000
B6 B 1 0.29300 0.38829 0.50000 1.0000
B7 B 1 0.79300 0.11171 0.50000 1.0000
B8 B 1 0.20700 0.88829 0.50000 1.0000
#End of data_3_ICSD92583

data_4_ICSD26153
_chemical_name_common		'beta-ZnCl2'
_chemical_formula_structural	'ZnCl2'
_chemical_formula_sum		'Ar1 B2'
_citation_special_details	'original source structure doi: 10.1524/zkri.1961.115.5-6.373'
;
File: ICSD26153.cif.
;
_cell_length_a			2.83294
_cell_length_b			4.92496
_cell_length_c			5.36080
_cell_angle_alpha		90.00000
_cell_angle_beta		90.00000
_cell_angle_gamma		90.00000
_cell_volume			74.79467
_cell_formula_units_Z		12
_symmetry_space_group_name_H-M	'P 1'
_symmetry_Int_Tables_number	1
loop_
_symmetry_equiv_pos_site_id
_symmetry_equiv_pos_as_xyz
1 x,y,z
loop_
_atom_site_label
_atom_site_type_symbol
_atom_site_symmetry_multiplicity
_atom_site_fract_x
_atom_site_fract_y
_atom_site_fract_z
_atom_site_occupancy
Ar1 Ar 1 0.16700 0.16700 0.06300 1.0000
Ar2 Ar 1 0.83300 0.83300 0.93700 1.0000
Ar3 Ar 1 0.33300 0.66700 0.43700 1.0000
Ar4 Ar 1 0.66700 0.33300 0.56300 1.0000
Ar5 Ar 1 0.16700 0.50000 0.18800 1.0000
Ar6 Ar 1 0.83300 0.50000 0.81200 1.0000
Ar7 Ar 1 0.33300 0.00000 0.31200 1.0000
Ar8 Ar 1 0.66700 0.00000 0.68800 1.0000
Ar9 Ar 1 0.66700 0.66700 0.18800 1.0000
Ar10 Ar 1 0.33300 0.33300 0.81200 1.0000
Ar11 Ar 1 0.83300 0.16700 0.31200 1.0000
Ar12 Ar 1 0.16700 0.83300 0.68800 1.0000
B1 B 1 0.33300 0.00000 0.12500 1.0000
B2 B 1 0.66700 0.00000 0.87500 1.0000
B3 B 1 0.16700 0.50000 0.37500 1.0000
B4 B 1 0.83300 0.50000 0.62500 1.0000
B5 B 1 0.33300 0.33300 0.12500 1.0000
B6 B 1 0.66700 0.66700 0.87500 1.0000
B7 B 1 0.16700 0.83300 0.37500 1.0000
B8 B 1 0.83300 0.16700 0.62500 1.0000
B9 B 1 0.33300 0.66700 0.12500 1.0000
B10 B 1 0.66700 0.33300 0.87500 1.0000
B11 B 1 0.16700 0.16700 0.37500 1.0000
B12 B 1 0.83300 0.83300 0.62500 1.0000
B13 B 1 0.83300 0.16700 0.12500 1.0000
B14 B 1 0.16700 0.83300 0.87500 1.0000
B15 B 1 0.66700 0.66700 0.37500 1.0000
B16 B 1 0.33300 0.33300 0.62500 1.0000
B17 B 1 0.83300 0.50000 0.12500 1.0000
B18 B 1 0.16700 0.50000 0.87500 1.0000
B19 B 1 0.66700 0.00000 0.37500 1.0000
B20 B 1 0.33300 0.00000 0.62500 1.0000
B21 B 1 0.83300 0.83300 0.12500 1.0000
B22 B 1 0.16700 0.16700 0.87500 1.0000
B23 B 1 0.66700 0.33300 0.37500 1.0000
B24 B 1 0.33300 0.66700 0.62500 1.0000
#End of data_4_ICSD26153

data_5_ICSD26154
_chemical_name_common		'alpha-ZnCl2'
_chemical_formula_structural	'ZnCl2'
_chemical_formula_sum		'Ar1 B2'
_citation_special_details	'original source structure doi: 10.1524/zkri.1961.115.5-6.373'
;
File: ICSD26154.cif.
;
_cell_length_a			2.34638
_cell_length_b			2.34638
_cell_length_c			4.46723
_cell_angle_alpha		90.00000
_cell_angle_beta		90.00000
_cell_angle_gamma		90.00000
_cell_volume			24.59426
_cell_formula_units_Z		4
_symmetry_space_group_name_H-M	'P 1'
_symmetry_Int_Tables_number	1
loop_
_symmetry_equiv_pos_site_id
_symmetry_equiv_pos_as_xyz
1 x,y,z
loop_
_atom_site_label
_atom_site_type_symbol
_atom_site_symmetry_multiplicity
_atom_site_fract_x
_atom_site_fract_y
_atom_site_fract_z
_atom_site_occupancy
Ar1 Ar 1 0.00000 0.00000 0.00000 1.0000
Ar2 Ar 1 0.50000 0.00000 0.75000 1.0000
Ar3 Ar 1 0.50000 0.50000 0.50000 1.0000
Ar4 Ar 1 0.00000 0.50000 0.25000 1.0000
B1 B 1 0.25000 0.25000 0.12500 1.0000
B2 B 1 0.75000 0.75000 0.12500 1.0000
B3 B 1 0.25000 0.75000 0.87500 1.0000
B4 B 1 0.75000 0.25000 0.87500 1.0000
B5 B 1 0.25000 0.25000 0.62500 1.0000
B6 B 1 0.75000 0.75000 0.62500 1.0000
B7 B 1 0.75000 0.25000 0.37500 1.0000
B8 B 1 0.25000 0.75000 0.37500 1.0000
#End of data_5_ICSD26154

data_6_FUBYUW
_chemical_name_common		'Lithium tetracarbonyl-cobalt'
_chemical_formula_structural	'LiCo(CO)4'
_chemical_formula_sum		'Ar1 B2'
_citation_special_details	'original source structure doi: 10.1524/zkri.1984.167.3-4.275'
;
File: FUBYUW.cif.
;
_cell_length_a			2.39415
_cell_length_b			2.39415
_cell_length_c			2.39415
_cell_angle_alpha		90.00000
_cell_angle_beta		90.00000
_cell_angle_gamma		90.00000
_cell_volume			13.72323
_cell_formula_units_Z		2
_symmetry_space_group_name_H-M	'P 1'
_symmetry_Int_Tables_number	1
loop_
_symmetry_equiv_pos_site_id
_symmetry_equiv_pos_as_xyz
1 x,y,z
loop_
_atom_site_label
_atom_site_type_symbol
_atom_site_symmetry_multiplicity
_atom_site_fract_x
_atom_site_fract_y
_atom_site_fract_z
_atom_site_occupancy
Ar1 Ar 1 0.50000 0.50000 0.50000 1.0000
Ar2 Ar 1 0.00000 0.00000 0.00000 1.0000
B1 B 1 0.24115 0.24115 0.24115 1.0000
B2 B 1 0.75885 0.75885 0.24115 1.0000
B3 B 1 0.75885 0.24115 0.75885 1.0000
B4 B 1 0.24115 0.75885 0.75885 1.0000
#End of data_6_FUBYUW

data_7_ICSD92586
_chemical_name_common		'beta-BeCl2'
_chemical_formula_structural	'BeCl2'
_chemical_formula_sum		'Ar1 B2'
_citation_special_details	'original source structure doi: not available'
;
File: ICSD92586.cif.
;
_cell_length_a			5.23874
_cell_length_b			5.23874
_cell_length_c			8.91796
_cell_angle_alpha		90.00000
_cell_angle_beta		90.00000
_cell_angle_gamma		90.00000
_cell_volume			244.74778
_cell_formula_units_Z		32
_symmetry_space_group_name_H-M	'P 1'
_symmetry_Int_Tables_number	1
loop_
_symmetry_equiv_pos_site_id
_symmetry_equiv_pos_as_xyz
1 x,y,z
loop_
_atom_site_label
_atom_site_type_symbol
_atom_site_symmetry_multiplicity
_atom_site_fract_x
_atom_site_fract_y
_atom_site_fract_z
_atom_site_occupancy
Ar1 Ar 1 0.40990 0.37490 0.18888 1.0000
Ar2 Ar 1 0.59010 0.62510 0.81112 1.0000
Ar3 Ar 1 0.09010 0.62510 0.68888 1.0000
Ar4 Ar 1 0.90990 0.37490 0.31112 1.0000
Ar5 Ar 1 0.87510 0.15990 0.43888 1.0000
Ar6 Ar 1 0.12490 0.84010 0.56112 1.0000
Ar7 Ar 1 0.62490 0.84010 0.93888 1.0000
Ar8 Ar 1 0.37510 0.15990 0.06112 1.0000
Ar9 Ar 1 0.09010 0.37490 0.81112 1.0000
Ar10 Ar 1 0.90990 0.62510 0.18888 1.0000
Ar11 Ar 1 0.40990 0.62510 0.31112 1.0000
Ar12 Ar 1 0.59010 0.37490 0.68888 1.0000
Ar13 Ar 1 0.62490 0.15990 0.56112 1.0000
Ar14 Ar 1 0.37510 0.84010 0.43888 1.0000
Ar15 Ar 1 0.87510 0.84010 0.06112 1.0000
Ar16 Ar 1 0.12490 0.15990 0.93888 1.0000
Ar17 Ar 1 0.90990 0.87490 0.68888 1.0000
Ar18 Ar 1 0.09010 0.12510 0.31112 1.0000
Ar19 Ar 1 0.59010 0.12510 0.18888 1.0000
Ar20 Ar 1 0.40990 0.87490 0.81112 1.0000
Ar21 Ar 1 0.37510 0.65990 0.93888 1.0000
Ar22 Ar 1 0.62490 0.34010 0.06112 1.0000
Ar23 Ar 1 0.12490 0.34010 0.43888 1.0000
Ar24 Ar 1 0.87510 0.65990 0.56112 1.0000
Ar25 Ar 1 0.59010 0.87490 0.31112 1.0000
Ar26 Ar 1 0.40990 0.12510 0.68888 1.0000
Ar27 Ar 1 0.90990 0.12510 0.81112 1.0000
Ar28 Ar 1 0.09010 0.87490 0.18888 1.0000
Ar29 Ar 1 0.12490 0.65990 0.06112 1.0000
Ar30 Ar 1 0.87510 0.34010 0.93888 1.0000
Ar31 Ar 1 0.37510 0.34010 0.56112 1.0000
Ar32 Ar 1 0.62490 0.65990 0.43888 1.0000
B1 B 1 0.53382 0.47002 0.12444 1.0000
B2 B 1 0.46618 0.52998 0.87556 1.0000
B3 B 1 0.96618 0.52998 0.62444 1.0000
B4 B 1 0.03382 0.47002 0.37556 1.0000
B5 B 1 0.77998 0.28382 0.37444 1.0000
B6 B 1 0.22002 0.71618 0.62556 1.0000
B7 B 1 0.72002 0.71618 0.87444 1.0000
B8 B 1 0.27998 0.28382 0.12556 1.0000
B9 B 1 0.96618 0.47002 0.87556 1.0000
B10 B 1 0.03382 0.52998 0.12444 1.0000
B11 B 1 0.53382 0.52998 0.37556 1.0000
B12 B 1 0.46618 0.47002 0.62444 1.0000
B13 B 1 0.72002 0.28382 0.62556 1.0000
B14 B 1 0.27998 0.71618 0.37444 1.0000
B15 B 1 0.77998 0.71618 0.12556 1.0000
B16 B 1 0.22002 0.28382 0.87444 1.0000
B17 B 1 0.03382 0.97002 0.62444 1.0000
B18 B 1 0.96618 0.02998 0.37556 1.0000
B19 B 1 0.46618 0.02998 0.12444 1.0000
B20 B 1 0.53382 0.97002 0.87556 1.0000
B21 B 1 0.27998 0.78382 0.87444 1.0000
B22 B 1 0.72002 0.21618 0.12556 1.0000
B23 B 1 0.22002 0.21618 0.37444 1.0000
B24 B 1 0.77998 0.78382 0.62556 1.0000
B25 B 1 0.46618 0.97002 0.37556 1.0000
B26 B 1 0.53382 0.02998 0.62444 1.0000
B27 B 1 0.03382 0.02998 0.87556 1.0000
B28 B 1 0.96618 0.97002 0.12444 1.0000
B29 B 1 0.22002 0.78382 0.12556 1.0000
B30 B 1 0.77998 0.21618 0.87444 1.0000
B31 B 1 0.27998 0.21618 0.62556 1.0000
B32 B 1 0.72002 0.78382 0.37444 1.0000
B33 B 1 0.50000 0.25000 0.25591 1.0000
B34 B 1 0.50000 0.75000 0.74409 1.0000
B35 B 1 0.00000 0.75000 0.75591 1.0000
B36 B 1 0.00000 0.25000 0.24409 1.0000
B37 B 1 0.00000 0.25000 0.50591 1.0000
B38 B 1 0.00000 0.75000 0.49409 1.0000
B39 B 1 0.50000 0.75000 0.00591 1.0000
B40 B 1 0.50000 0.25000 0.99409 1.0000
B41 B 1 0.00000 0.25000 0.74409 1.0000
B42 B 1 0.00000 0.75000 0.25591 1.0000
B43 B 1 0.50000 0.75000 0.24409 1.0000
B44 B 1 0.50000 0.25000 0.75591 1.0000
B45 B 1 0.50000 0.25000 0.49409 1.0000
B46 B 1 0.50000 0.75000 0.50591 1.0000
B47 B 1 0.00000 0.75000 0.99409 1.0000
B48 B 1 0.00000 0.25000 0.00591 1.0000
B49 B 1 0.30876 0.50000 0.25000 1.0000
B50 B 1 0.69124 0.50000 0.75000 1.0000
B51 B 1 0.19124 0.50000 0.75000 1.0000
B52 B 1 0.80876 0.50000 0.25000 1.0000
B53 B 1 0.75000 0.05876 0.50000 1.0000
B54 B 1 0.25000 0.94124 0.50000 1.0000
B55 B 1 0.75000 0.94124 0.00000 1.0000
B56 B 1 0.25000 0.05876 0.00000 1.0000
B57 B 1 0.80876 0.00000 0.75000 1.0000
B58 B 1 0.19124 0.00000 0.25000 1.0000
B59 B 1 0.69124 0.00000 0.25000 1.0000
B60 B 1 0.30876 0.00000 0.75000 1.0000
B61 B 1 0.25000 0.55876 0.00000 1.0000
B62 B 1 0.75000 0.44124 0.00000 1.0000
B63 B 1 0.25000 0.44124 0.50000 1.0000
B64 B 1 0.75000 0.55876 0.50000 1.0000
#End of data_7_ICSD92586

