data_1_ICSD67669
_chemical_name_common		'moganite'
_chemical_formula_structural	'SiO2'
_chemical_formula_sum		'Ar1 B2'
_citation_special_details	'original source structure doi: 10.1127/ejm/4/4/0693'
;
File: ICSD67669.cif.
;
_cell_length_a			5.48704
_cell_length_b			3.05490
_cell_length_c			6.71313
_cell_angle_alpha		90.00000
_cell_angle_beta		90.08000
_cell_angle_gamma		90.00000
_cell_volume			112.52765
_cell_formula_units_Z		12
_symmetry_space_group_name_H-M	'P 1'
_symmetry_Int_Tables_number	1
loop_
_symmetry_equiv_pos_site_id
_symmetry_equiv_pos_as_xyz
1 x,y,z
loop_
_atom_site_label
_atom_site_type_symbol
_atom_site_symmetry_multiplicity
_atom_site_fract_x
_atom_site_fract_y
_atom_site_fract_z
_atom_site_occupancy
Ar1 Ar 1 0.25000 0.99080 0.00000 1.0000
Ar2 Ar 1 0.75000 0.00920 0.00000 1.0000
Ar3 Ar 1 0.75000 0.49080 0.50000 1.0000
Ar4 Ar 1 0.25000 0.50920 0.50000 1.0000
Ar5 Ar 1 0.01150 0.25330 0.16780 1.0000
Ar6 Ar 1 0.98850 0.74670 0.83220 1.0000
Ar7 Ar 1 0.48850 0.25330 0.83220 1.0000
Ar8 Ar 1 0.51150 0.74670 0.16780 1.0000
Ar9 Ar 1 0.51150 0.75330 0.66780 1.0000
Ar10 Ar 1 0.48850 0.24670 0.33220 1.0000
Ar11 Ar 1 0.98850 0.75330 0.33220 1.0000
Ar12 Ar 1 0.01150 0.24670 0.66780 1.0000
B1 B 1 0.96860 0.06800 0.28600 1.0000
B2 B 1 0.03140 0.93200 0.71400 1.0000
B3 B 1 0.53140 0.06800 0.71400 1.0000
B4 B 1 0.46860 0.93200 0.28600 1.0000
B5 B 1 0.46860 0.56800 0.78600 1.0000
B6 B 1 0.53140 0.43200 0.21400 1.0000
B7 B 1 0.03140 0.56800 0.21400 1.0000
B8 B 1 0.96860 0.43200 0.78600 1.0000
B9 B 1 0.17110 0.17700 0.10500 1.0000
B10 B 1 0.82890 0.82300 0.89500 1.0000
B11 B 1 0.32890 0.17700 0.89500 1.0000
B12 B 1 0.67110 0.82300 0.10500 1.0000
B13 B 1 0.67110 0.67700 0.60500 1.0000
B14 B 1 0.32890 0.32300 0.39500 1.0000
B15 B 1 0.82890 0.67700 0.39500 1.0000
B16 B 1 0.17110 0.32300 0.60500 1.0000
B17 B 1 0.86570 0.21480 0.07390 1.0000
B18 B 1 0.13430 0.78520 0.92610 1.0000
B19 B 1 0.63430 0.21480 0.92610 1.0000
B20 B 1 0.36570 0.78520 0.07390 1.0000
B21 B 1 0.36570 0.71480 0.57390 1.0000
B22 B 1 0.63430 0.28520 0.42610 1.0000
B23 B 1 0.13430 0.71480 0.42610 1.0000
B24 B 1 0.86570 0.28520 0.57390 1.0000
#End of data_1_ICSD67669

data_2_ICSD156195
_chemical_name_common		'coesite'
_chemical_formula_structural	'SiO2'
_chemical_formula_sum		'Ar1 B2'
_citation_special_details	'original source structure doi: 10.2138/am.2007.2228'
;
File: ICSD156195.cif.
;
_cell_length_a			4.47959
_cell_length_b			7.76149
_cell_length_c			4.50155
_cell_angle_alpha		90.00000
_cell_angle_beta		120.34000
_cell_angle_gamma		90.00000
_cell_volume			135.07616
_cell_formula_units_Z		16
_symmetry_space_group_name_H-M	'P 1'
_symmetry_Int_Tables_number	1
loop_
_symmetry_equiv_pos_site_id
_symmetry_equiv_pos_as_xyz
1 x,y,z
loop_
_atom_site_label
_atom_site_type_symbol
_atom_site_symmetry_multiplicity
_atom_site_fract_x
_atom_site_fract_y
_atom_site_fract_z
_atom_site_occupancy
Ar1 Ar 1 0.14010 0.10830 0.07230 1.0000
Ar2 Ar 1 0.85990 0.89170 0.92770 1.0000
Ar3 Ar 1 0.85990 0.10830 0.42770 1.0000
Ar4 Ar 1 0.14010 0.89170 0.57230 1.0000
Ar5 Ar 1 0.64010 0.60830 0.07230 1.0000
Ar6 Ar 1 0.35990 0.39170 0.92770 1.0000
Ar7 Ar 1 0.35990 0.60830 0.42770 1.0000
Ar8 Ar 1 0.64010 0.39170 0.57230 1.0000
Ar9 Ar 1 0.50680 0.15810 0.54070 1.0000
Ar10 Ar 1 0.49320 0.84190 0.45930 1.0000
Ar11 Ar 1 0.49320 0.15810 0.95930 1.0000
Ar12 Ar 1 0.50680 0.84190 0.04070 1.0000
Ar13 Ar 1 0.00680 0.65810 0.54070 1.0000
Ar14 Ar 1 0.99320 0.34190 0.45930 1.0000
Ar15 Ar 1 0.99320 0.65810 0.95930 1.0000
Ar16 Ar 1 0.00680 0.34190 0.04070 1.0000
B1 B 1 0.00000 0.00000 0.00000 1.0000
B2 B 1 0.00000 0.00000 0.50000 1.0000
B3 B 1 0.50000 0.50000 0.00000 1.0000
B4 B 1 0.50000 0.50000 0.50000 1.0000
B5 B 1 0.50000 0.11620 0.75000 1.0000
B6 B 1 0.50000 0.88380 0.25000 1.0000
B7 B 1 1.00000 0.61620 0.75000 1.0000
B8 B 1 0.00000 0.38380 0.25000 1.0000
B9 B 1 0.26690 0.12360 0.94060 1.0000
B10 B 1 0.73310 0.87640 0.05940 1.0000
B11 B 1 0.73310 0.12360 0.55940 1.0000
B12 B 1 0.26690 0.87640 0.44060 1.0000
B13 B 1 0.76690 0.62360 0.94060 1.0000
B14 B 1 0.23310 0.37640 0.05940 1.0000
B15 B 1 0.23310 0.62360 0.55940 1.0000
B16 B 1 0.76690 0.37640 0.44060 1.0000
B17 B 1 0.31040 0.10420 0.32750 1.0000
B18 B 1 0.68960 0.89580 0.67250 1.0000
B19 B 1 0.68960 0.10420 0.17250 1.0000
B20 B 1 0.31040 0.89580 0.82750 1.0000
B21 B 1 0.81040 0.60420 0.32750 1.0000
B22 B 1 0.18960 0.39580 0.67250 1.0000
B23 B 1 0.18960 0.60420 0.17250 1.0000
B24 B 1 0.81040 0.39580 0.82750 1.0000
B25 B 1 0.01670 0.21200 0.47800 1.0000
B26 B 1 0.98330 0.78800 0.52200 1.0000
B27 B 1 0.98330 0.21200 0.02200 1.0000
B28 B 1 0.01670 0.78800 0.97800 1.0000
B29 B 1 0.51670 0.71200 0.47800 1.0000
B30 B 1 0.48330 0.28800 0.52200 1.0000
B31 B 1 0.48330 0.71200 0.02200 1.0000
B32 B 1 0.51670 0.28800 0.97800 1.0000
#End of data_2_ICSD156195

data_3_ICSD34889
_chemical_name_common		'keatite'
_chemical_formula_structural	'SiO2'
_chemical_formula_sum		'Ar1 B2'
_citation_special_details	'original source structure doi: 10.1524/zkri.1959.112.1-6.409'
;
File: ICSD34889.cif.
;
_cell_length_a			4.74815
_cell_length_b			4.74815
_cell_length_c			5.47922
_cell_angle_alpha		90.00000
_cell_angle_beta		90.00000
_cell_angle_gamma		90.00000
_cell_volume			123.52884
_cell_formula_units_Z		12
_symmetry_space_group_name_H-M	'P 1'
_symmetry_Int_Tables_number	1
loop_
_symmetry_equiv_pos_site_id
_symmetry_equiv_pos_as_xyz
1 x,y,z
loop_
_atom_site_label
_atom_site_type_symbol
_atom_site_symmetry_multiplicity
_atom_site_fract_x
_atom_site_fract_y
_atom_site_fract_z
_atom_site_occupancy
Ar1 Ar 1 0.32600 0.12000 0.24800 1.0000
Ar2 Ar 1 0.67400 0.88000 0.74800 1.0000
Ar3 Ar 1 0.38000 0.82600 0.99800 1.0000
Ar4 Ar 1 0.62000 0.17400 0.49800 1.0000
Ar5 Ar 1 0.17400 0.62000 0.50200 1.0000
Ar6 Ar 1 0.82600 0.38000 0.00200 1.0000
Ar7 Ar 1 0.12000 0.32600 0.75200 1.0000
Ar8 Ar 1 0.88000 0.67400 0.25200 1.0000
Ar9 Ar 1 0.41000 0.41000 0.00000 1.0000
Ar10 Ar 1 0.59000 0.59000 0.50000 1.0000
Ar11 Ar 1 0.09000 0.91000 0.75000 1.0000
Ar12 Ar 1 0.91000 0.09000 0.25000 1.0000
B1 B 1 0.44500 0.13200 0.40000 1.0000
B2 B 1 0.55500 0.86800 0.90000 1.0000
B3 B 1 0.36800 0.94500 0.15000 1.0000
B4 B 1 0.63200 0.05500 0.65000 1.0000
B5 B 1 0.05500 0.63200 0.35000 1.0000
B6 B 1 0.94500 0.36800 0.85000 1.0000
B7 B 1 0.13200 0.44500 0.60000 1.0000
B8 B 1 0.86800 0.55500 0.10000 1.0000
B9 B 1 0.11700 0.12300 0.29600 1.0000
B10 B 1 0.88300 0.87700 0.79600 1.0000
B11 B 1 0.37700 0.61700 0.04600 1.0000
B12 B 1 0.62300 0.38300 0.54600 1.0000
B13 B 1 0.38300 0.62300 0.45400 1.0000
B14 B 1 0.61700 0.37700 0.95400 1.0000
B15 B 1 0.12300 0.11700 0.70400 1.0000
B16 B 1 0.87700 0.88300 0.20400 1.0000
B17 B 1 0.34400 0.29700 0.14300 1.0000
B18 B 1 0.65600 0.70300 0.64300 1.0000
B19 B 1 0.20300 0.84400 0.89300 1.0000
B20 B 1 0.79700 0.15600 0.39300 1.0000
B21 B 1 0.15600 0.79700 0.60700 1.0000
B22 B 1 0.84400 0.20300 0.10700 1.0000
B23 B 1 0.29700 0.34400 0.85700 1.0000
B24 B 1 0.70300 0.65600 0.35700 1.0000
#End of data_3_ICSD34889

data_4_AMCSD0009625
_chemical_name_common		'alpha-tridymite'
_chemical_formula_structural	'SiO2'
_chemical_formula_sum		'Ar1 B2'
_citation_special_details	'original source structure doi: 10.1107/S0567740878003210'
;
File: AMCSD0009625.cif.
;
_cell_length_a			6.26676
_cell_length_b			10.86271
_cell_length_c			51.65341
_cell_angle_alpha		90.00000
_cell_angle_beta		90.00000
_cell_angle_gamma		90.00000
_cell_volume			3516.25180
_cell_formula_units_Z		320
_symmetry_space_group_name_H-M	'P 1'
_symmetry_Int_Tables_number	1
loop_
_symmetry_equiv_pos_site_id
_symmetry_equiv_pos_as_xyz
1 x,y,z
loop_
_atom_site_label
_atom_site_type_symbol
_atom_site_symmetry_multiplicity
_atom_site_fract_x
_atom_site_fract_y
_atom_site_fract_z
_atom_site_occupancy
Ar1 Ar 1 0.06049 0.03633 0.03414 1.0000
Ar2 Ar 1 0.06049 0.53633 0.53414 1.0000
Ar3 Ar 1 0.56049 0.03633 0.53414 1.0000
Ar4 Ar 1 0.56049 0.53633 0.03414 1.0000
Ar5 Ar 1 0.56126 0.03679 0.03371 1.0000
Ar6 Ar 1 0.56126 0.53679 0.53371 1.0000
Ar7 Ar 1 0.06126 0.03679 0.53371 1.0000
Ar8 Ar 1 0.06126 0.53679 0.03371 1.0000
Ar9 Ar 1 0.97978 0.19793 0.01846 1.0000
Ar10 Ar 1 0.97978 0.69793 0.51846 1.0000
Ar11 Ar 1 0.47978 0.19793 0.51846 1.0000
Ar12 Ar 1 0.47978 0.69793 0.01846 1.0000
Ar13 Ar 1 0.23025 0.28978 0.02831 1.0000
Ar14 Ar 1 0.23025 0.78978 0.52831 1.0000
Ar15 Ar 1 0.73025 0.28978 0.52831 1.0000
Ar16 Ar 1 0.73025 0.78978 0.02831 1.0000
Ar17 Ar 1 0.48204 0.19712 0.01779 1.0000
Ar18 Ar 1 0.48204 0.69712 0.51779 1.0000
Ar19 Ar 1 0.98204 0.19712 0.51779 1.0000
Ar20 Ar 1 0.98204 0.69712 0.01779 1.0000
Ar21 Ar 1 0.72606 0.29128 0.02822 1.0000
Ar22 Ar 1 0.72606 0.79128 0.52822 1.0000
Ar23 Ar 1 0.22606 0.29128 0.52822 1.0000
Ar24 Ar 1 0.22606 0.79128 0.02822 1.0000
Ar25 Ar 1 0.31136 0.46063 0.01895 1.0000
Ar26 Ar 1 0.31136 0.96063 0.51895 1.0000
Ar27 Ar 1 0.81136 0.46063 0.51895 1.0000
Ar28 Ar 1 0.81136 0.96063 0.01895 1.0000
Ar29 Ar 1 0.81084 0.46158 0.01933 1.0000
Ar30 Ar 1 0.81084 0.96158 0.51933 1.0000
Ar31 Ar 1 0.31084 0.46158 0.51933 1.0000
Ar32 Ar 1 0.31084 0.96158 0.01933 1.0000
Ar33 Ar 1 0.01300 0.05235 0.07211 1.0000
Ar34 Ar 1 0.01300 0.55235 0.57211 1.0000
Ar35 Ar 1 0.51300 0.05235 0.57211 1.0000
Ar36 Ar 1 0.51300 0.55235 0.07211 1.0000
Ar37 Ar 1 0.48576 0.03038 0.07135 1.0000
Ar38 Ar 1 0.48576 0.53038 0.57135 1.0000
Ar39 Ar 1 0.98576 0.03038 0.57135 1.0000
Ar40 Ar 1 0.98576 0.53038 0.07135 1.0000
Ar41 Ar 1 0.98355 0.22688 0.07960 1.0000
Ar42 Ar 1 0.98355 0.72688 0.57960 1.0000
Ar43 Ar 1 0.48355 0.22688 0.57960 1.0000
Ar44 Ar 1 0.48355 0.72688 0.07960 1.0000
Ar45 Ar 1 0.23070 0.31107 0.06598 1.0000
Ar46 Ar 1 0.23070 0.81107 0.56598 1.0000
Ar47 Ar 1 0.73070 0.31107 0.56598 1.0000
Ar48 Ar 1 0.73070 0.81107 0.06598 1.0000
Ar49 Ar 1 0.46080 0.20317 0.07936 1.0000
Ar50 Ar 1 0.46080 0.70317 0.57936 1.0000
Ar51 Ar 1 0.96080 0.20317 0.57936 1.0000
Ar52 Ar 1 0.96080 0.70317 0.07936 1.0000
Ar53 Ar 1 0.71072 0.28419 0.06591 1.0000
Ar54 Ar 1 0.71072 0.78419 0.56591 1.0000
Ar55 Ar 1 0.21072 0.28419 0.56591 1.0000
Ar56 Ar 1 0.21072 0.78419 0.06591 1.0000
Ar57 Ar 1 0.25859 0.46761 0.08318 1.0000
Ar58 Ar 1 0.25859 0.96761 0.58318 1.0000
Ar59 Ar 1 0.75859 0.46761 0.58318 1.0000
Ar60 Ar 1 0.75859 0.96761 0.08318 1.0000
Ar61 Ar 1 0.73949 0.44146 0.08340 1.0000
Ar62 Ar 1 0.73949 0.94146 0.58340 1.0000
Ar63 Ar 1 0.23949 0.44146 0.58340 1.0000
Ar64 Ar 1 0.23949 0.94146 0.08340 1.0000
Ar65 Ar 1 0.05429 0.04645 0.12921 1.0000
Ar66 Ar 1 0.05429 0.54645 0.62921 1.0000
Ar67 Ar 1 0.55429 0.04645 0.62921 1.0000
Ar68 Ar 1 0.55429 0.54645 0.12921 1.0000
Ar69 Ar 1 0.55652 0.04513 0.12951 1.0000
Ar70 Ar 1 0.55652 0.54513 0.62951 1.0000
Ar71 Ar 1 0.05652 0.04513 0.62951 1.0000
Ar72 Ar 1 0.05652 0.54513 0.12951 1.0000
Ar73 Ar 1 0.97443 0.21178 0.11701 1.0000
Ar74 Ar 1 0.97443 0.71178 0.61701 1.0000
Ar75 Ar 1 0.47443 0.21178 0.61701 1.0000
Ar76 Ar 1 0.47443 0.71178 0.11701 1.0000
Ar77 Ar 1 0.22884 0.28380 0.13270 1.0000
Ar78 Ar 1 0.22884 0.78380 0.63270 1.0000
Ar79 Ar 1 0.72884 0.28380 0.63270 1.0000
Ar80 Ar 1 0.72884 0.78380 0.13270 1.0000
Ar81 Ar 1 0.48158 0.21099 0.11717 1.0000
Ar82 Ar 1 0.48158 0.71099 0.61717 1.0000
Ar83 Ar 1 0.98158 0.21099 0.61717 1.0000
Ar84 Ar 1 0.98158 0.71099 0.11717 1.0000
Ar85 Ar 1 0.72795 0.28732 0.13375 1.0000
Ar86 Ar 1 0.72795 0.78732 0.63375 1.0000
Ar87 Ar 1 0.22795 0.28732 0.63375 1.0000
Ar88 Ar 1 0.22795 0.78732 0.13375 1.0000
Ar89 Ar 1 0.30672 0.45008 0.12047 1.0000
Ar90 Ar 1 0.30672 0.95008 0.62047 1.0000
Ar91 Ar 1 0.80672 0.45008 0.62047 1.0000
Ar92 Ar 1 0.80672 0.95008 0.12047 1.0000
Ar93 Ar 1 0.80469 0.45095 0.12077 1.0000
Ar94 Ar 1 0.80469 0.95095 0.62077 1.0000
Ar95 Ar 1 0.30469 0.45095 0.62077 1.0000
Ar96 Ar 1 0.30469 0.95095 0.12077 1.0000
Ar97 Ar 1 0.99194 0.05747 0.16665 1.0000
Ar98 Ar 1 0.99194 0.55747 0.66665 1.0000
Ar99 Ar 1 0.49194 0.05747 0.66665 1.0000
Ar100 Ar 1 0.49194 0.55747 0.16665 1.0000
Ar101 Ar 1 0.51258 0.03123 0.16666 1.0000
Ar102 Ar 1 0.51258 0.53123 0.66666 1.0000
Ar103 Ar 1 0.01258 0.03123 0.66666 1.0000
Ar104 Ar 1 0.01258 0.53123 0.16666 1.0000
Ar105 Ar 1 0.96569 0.21530 0.18369 1.0000
Ar106 Ar 1 0.96569 0.71530 0.68369 1.0000
Ar107 Ar 1 0.46569 0.21530 0.68369 1.0000
Ar108 Ar 1 0.46569 0.71530 0.18369 1.0000
Ar109 Ar 1 0.24039 0.27072 0.17021 1.0000
Ar110 Ar 1 0.24039 0.77072 0.67021 1.0000
Ar111 Ar 1 0.74039 0.27072 0.67021 1.0000
Ar112 Ar 1 0.74039 0.77072 0.17021 1.0000
Ar113 Ar 1 0.48592 0.18696 0.18403 1.0000
Ar114 Ar 1 0.48592 0.68696 0.68403 1.0000
Ar115 Ar 1 0.98592 0.18696 0.68403 1.0000
Ar116 Ar 1 0.98592 0.68696 0.18403 1.0000
Ar117 Ar 1 0.71198 0.29733 0.17140 1.0000
Ar118 Ar 1 0.71198 0.79733 0.67140 1.0000
Ar119 Ar 1 0.21198 0.29733 0.67140 1.0000
Ar120 Ar 1 0.21198 0.79733 0.17140 1.0000
Ar121 Ar 1 0.26630 0.44539 0.17770 1.0000
Ar122 Ar 1 0.26630 0.94539 0.67770 1.0000
Ar123 Ar 1 0.76630 0.44539 0.67770 1.0000
Ar124 Ar 1 0.76630 0.94539 0.17770 1.0000
Ar125 Ar 1 0.73858 0.47061 0.17894 1.0000
Ar126 Ar 1 0.73858 0.97061 0.67894 1.0000
Ar127 Ar 1 0.23858 0.47061 0.67894 1.0000
Ar128 Ar 1 0.23858 0.97061 0.17894 1.0000
Ar129 Ar 1 0.04792 0.03540 0.23125 1.0000
Ar130 Ar 1 0.04792 0.53540 0.73125 1.0000
Ar131 Ar 1 0.54792 0.03540 0.73125 1.0000
Ar132 Ar 1 0.54792 0.53540 0.23125 1.0000
Ar133 Ar 1 0.54997 0.03394 0.23180 1.0000
Ar134 Ar 1 0.54997 0.53394 0.73180 1.0000
Ar135 Ar 1 0.04997 0.03394 0.73180 1.0000
Ar136 Ar 1 0.04997 0.53394 0.23180 1.0000
Ar137 Ar 1 0.96767 0.20609 0.22157 1.0000
Ar138 Ar 1 0.96767 0.70609 0.72157 1.0000
Ar139 Ar 1 0.46767 0.20609 0.72157 1.0000
Ar140 Ar 1 0.46767 0.70609 0.22157 1.0000
Ar141 Ar 1 0.22078 0.30081 0.23164 1.0000
Ar142 Ar 1 0.22078 0.80081 0.73164 1.0000
Ar143 Ar 1 0.72078 0.30081 0.73164 1.0000
Ar144 Ar 1 0.72078 0.80081 0.23164 1.0000
Ar145 Ar 1 0.46402 0.20260 0.22158 1.0000
Ar146 Ar 1 0.46402 0.70260 0.72158 1.0000
Ar147 Ar 1 0.96402 0.20260 0.72158 1.0000
Ar148 Ar 1 0.96402 0.70260 0.22158 1.0000
Ar149 Ar 1 0.71696 0.29734 0.23155 1.0000
Ar150 Ar 1 0.71696 0.79734 0.73155 1.0000
Ar151 Ar 1 0.21696 0.29734 0.73155 1.0000
Ar152 Ar 1 0.21696 0.79734 0.23155 1.0000
Ar153 Ar 1 0.29700 0.46113 0.21579 1.0000
Ar154 Ar 1 0.29700 0.96113 0.71579 1.0000
Ar155 Ar 1 0.79700 0.46113 0.71579 1.0000
Ar156 Ar 1 0.79700 0.96113 0.21579 1.0000
Ar157 Ar 1 0.79829 0.45915 0.21663 1.0000
Ar158 Ar 1 0.79829 0.95915 0.71663 1.0000
Ar159 Ar 1 0.29829 0.45915 0.71663 1.0000
Ar160 Ar 1 0.29829 0.95915 0.21663 1.0000
Ar161 Ar 1 0.99500 0.03156 0.26833 1.0000
Ar162 Ar 1 0.99500 0.53156 0.76833 1.0000
Ar163 Ar 1 0.49500 0.03156 0.76833 1.0000
Ar164 Ar 1 0.49500 0.53156 0.26833 1.0000
Ar165 Ar 1 0.49360 0.02861 0.26878 1.0000
Ar166 Ar 1 0.49360 0.52861 0.76878 1.0000
Ar167 Ar 1 0.99360 0.02861 0.76878 1.0000
Ar168 Ar 1 0.99360 0.52861 0.26878 1.0000
Ar169 Ar 1 0.92376 0.20251 0.27784 1.0000
Ar170 Ar 1 0.92376 0.70251 0.77784 1.0000
Ar171 Ar 1 0.42376 0.20251 0.77784 1.0000
Ar172 Ar 1 0.42376 0.70251 0.27784 1.0000
Ar173 Ar 1 0.17311 0.29695 0.26892 1.0000
Ar174 Ar 1 0.17311 0.79695 0.76892 1.0000
Ar175 Ar 1 0.67311 0.29695 0.76892 1.0000
Ar176 Ar 1 0.67311 0.79695 0.26892 1.0000
Ar177 Ar 1 0.42106 0.20037 0.27810 1.0000
Ar178 Ar 1 0.42106 0.70037 0.77810 1.0000
Ar179 Ar 1 0.92106 0.20037 0.77810 1.0000
Ar180 Ar 1 0.92106 0.70037 0.27810 1.0000
Ar181 Ar 1 0.67164 0.29420 0.26879 1.0000
Ar182 Ar 1 0.67164 0.79420 0.76879 1.0000
Ar183 Ar 1 0.17164 0.29420 0.76879 1.0000
Ar184 Ar 1 0.17164 0.79420 0.26879 1.0000
Ar185 Ar 1 0.24310 0.45700 0.28464 1.0000
Ar186 Ar 1 0.24310 0.95700 0.78464 1.0000
Ar187 Ar 1 0.74310 0.45700 0.78464 1.0000
Ar188 Ar 1 0.74310 0.95700 0.28464 1.0000
Ar189 Ar 1 0.74099 0.45386 0.28401 1.0000
Ar190 Ar 1 0.74099 0.95386 0.78401 1.0000
Ar191 Ar 1 0.24099 0.45386 0.78401 1.0000
Ar192 Ar 1 0.24099 0.95386 0.28401 1.0000
Ar193 Ar 1 0.98873 0.05741 0.33366 1.0000
Ar194 Ar 1 0.98873 0.55741 0.83366 1.0000
Ar195 Ar 1 0.48873 0.05741 0.83366 1.0000
Ar196 Ar 1 0.48873 0.55741 0.33366 1.0000
Ar197 Ar 1 0.51099 0.03461 0.33274 1.0000
Ar198 Ar 1 0.51099 0.53461 0.83274 1.0000
Ar199 Ar 1 0.01099 0.03461 0.83274 1.0000
Ar200 Ar 1 0.01099 0.53461 0.33274 1.0000
Ar201 Ar 1 0.96451 0.21523 0.31602 1.0000
Ar202 Ar 1 0.96451 0.71523 0.81602 1.0000
Ar203 Ar 1 0.46451 0.21523 0.81602 1.0000
Ar204 Ar 1 0.46451 0.71523 0.31602 1.0000
Ar205 Ar 1 0.23592 0.27164 0.33012 1.0000
Ar206 Ar 1 0.23592 0.77164 0.83012 1.0000
Ar207 Ar 1 0.73592 0.27164 0.83012 1.0000
Ar208 Ar 1 0.73592 0.77164 0.33012 1.0000
Ar209 Ar 1 0.48141 0.19216 0.31597 1.0000
Ar210 Ar 1 0.48141 0.69216 0.81597 1.0000
Ar211 Ar 1 0.98141 0.19216 0.81597 1.0000
Ar212 Ar 1 0.98141 0.69216 0.31597 1.0000
Ar213 Ar 1 0.71254 0.29525 0.32940 1.0000
Ar214 Ar 1 0.71254 0.79525 0.82940 1.0000
Ar215 Ar 1 0.21254 0.29525 0.82940 1.0000
Ar216 Ar 1 0.21254 0.79525 0.32940 1.0000
Ar217 Ar 1 0.26507 0.44681 0.32239 1.0000
Ar218 Ar 1 0.26507 0.94681 0.82239 1.0000
Ar219 Ar 1 0.76507 0.44681 0.82239 1.0000
Ar220 Ar 1 0.76507 0.94681 0.32239 1.0000
Ar221 Ar 1 0.73711 0.46883 0.32151 1.0000
Ar222 Ar 1 0.73711 0.96883 0.82151 1.0000
Ar223 Ar 1 0.23711 0.46883 0.82151 1.0000
Ar224 Ar 1 0.23711 0.96883 0.32151 1.0000
Ar225 Ar 1 0.05402 0.04624 0.37071 1.0000
Ar226 Ar 1 0.05402 0.54624 0.87071 1.0000
Ar227 Ar 1 0.55402 0.04624 0.87071 1.0000
Ar228 Ar 1 0.55402 0.54624 0.37071 1.0000
Ar229 Ar 1 0.55433 0.04489 0.37002 1.0000
Ar230 Ar 1 0.55433 0.54489 0.87002 1.0000
Ar231 Ar 1 0.05433 0.04489 0.87002 1.0000
Ar232 Ar 1 0.05433 0.54489 0.37002 1.0000
Ar233 Ar 1 0.97633 0.20997 0.38348 1.0000
Ar234 Ar 1 0.97633 0.70997 0.88348 1.0000
Ar235 Ar 1 0.47633 0.20997 0.88348 1.0000
Ar236 Ar 1 0.47633 0.70997 0.38348 1.0000
Ar237 Ar 1 0.22606 0.28414 0.36728 1.0000
Ar238 Ar 1 0.22606 0.78414 0.86728 1.0000
Ar239 Ar 1 0.72606 0.28414 0.86728 1.0000
Ar240 Ar 1 0.72606 0.78414 0.36728 1.0000
Ar241 Ar 1 0.47769 0.20929 0.38290 1.0000
Ar242 Ar 1 0.47769 0.70929 0.88290 1.0000
Ar243 Ar 1 0.97769 0.20929 0.88290 1.0000
Ar244 Ar 1 0.97769 0.70929 0.38290 1.0000
Ar245 Ar 1 0.72917 0.28317 0.36679 1.0000
Ar246 Ar 1 0.72917 0.78317 0.86679 1.0000
Ar247 Ar 1 0.22917 0.28317 0.86679 1.0000
Ar248 Ar 1 0.22917 0.78317 0.36679 1.0000
Ar249 Ar 1 0.30406 0.44985 0.37919 1.0000
Ar250 Ar 1 0.30406 0.94985 0.87919 1.0000
Ar251 Ar 1 0.80406 0.44985 0.87919 1.0000
Ar252 Ar 1 0.80406 0.94985 0.37919 1.0000
Ar253 Ar 1 0.80457 0.44962 0.37903 1.0000
Ar254 Ar 1 0.80457 0.94962 0.87903 1.0000
Ar255 Ar 1 0.30457 0.44962 0.87903 1.0000
Ar256 Ar 1 0.30457 0.94962 0.37903 1.0000
Ar257 Ar 1 0.01089 0.04822 0.42801 1.0000
Ar258 Ar 1 0.01089 0.54822 0.92801 1.0000
Ar259 Ar 1 0.51089 0.04822 0.92801 1.0000
Ar260 Ar 1 0.51089 0.54822 0.42801 1.0000
Ar261 Ar 1 0.49177 0.02779 0.42869 1.0000
Ar262 Ar 1 0.49177 0.52779 0.92869 1.0000
Ar263 Ar 1 0.99177 0.02779 0.92869 1.0000
Ar264 Ar 1 0.99177 0.52779 0.42869 1.0000
Ar265 Ar 1 0.98352 0.22402 0.42095 1.0000
Ar266 Ar 1 0.98352 0.72402 0.92095 1.0000
Ar267 Ar 1 0.48352 0.22402 0.92095 1.0000
Ar268 Ar 1 0.48352 0.72402 0.42095 1.0000
Ar269 Ar 1 0.23522 0.30330 0.43401 1.0000
Ar270 Ar 1 0.23522 0.80330 0.93401 1.0000
Ar271 Ar 1 0.73522 0.30330 0.93401 1.0000
Ar272 Ar 1 0.73522 0.80330 0.43401 1.0000
Ar273 Ar 1 0.46602 0.20096 0.42080 1.0000
Ar274 Ar 1 0.46602 0.70096 0.92080 1.0000
Ar275 Ar 1 0.96602 0.20096 0.92080 1.0000
Ar276 Ar 1 0.96602 0.70096 0.42080 1.0000
Ar277 Ar 1 0.71384 0.28565 0.43382 1.0000
Ar278 Ar 1 0.71384 0.78565 0.93382 1.0000
Ar279 Ar 1 0.21384 0.28565 0.93382 1.0000
Ar280 Ar 1 0.21384 0.78565 0.43382 1.0000
Ar281 Ar 1 0.26175 0.45878 0.41648 1.0000
Ar282 Ar 1 0.26175 0.95878 0.91648 1.0000
Ar283 Ar 1 0.76175 0.45878 0.91648 1.0000
Ar284 Ar 1 0.76175 0.95878 0.41648 1.0000
Ar285 Ar 1 0.74321 0.44246 0.41648 1.0000
Ar286 Ar 1 0.74321 0.94246 0.91648 1.0000
Ar287 Ar 1 0.24321 0.44246 0.91648 1.0000
Ar288 Ar 1 0.24321 0.94246 0.41648 1.0000
Ar289 Ar 1 0.00089 0.03822 0.46580 1.0000
Ar290 Ar 1 0.00089 0.53822 0.96580 1.0000
Ar291 Ar 1 0.50089 0.03822 0.96580 1.0000
Ar292 Ar 1 0.50089 0.53822 0.46580 1.0000
Ar293 Ar 1 0.50365 0.03917 0.46628 1.0000
Ar294 Ar 1 0.50365 0.53917 0.96628 1.0000
Ar295 Ar 1 0.00365 0.03917 0.96628 1.0000
Ar296 Ar 1 0.00365 0.53917 0.46628 1.0000
Ar297 Ar 1 0.93206 0.19996 0.48037 1.0000
Ar298 Ar 1 0.93206 0.69996 0.98037 1.0000
Ar299 Ar 1 0.43206 0.19996 0.98037 1.0000
Ar300 Ar 1 0.43206 0.69996 0.48037 1.0000
Ar301 Ar 1 0.18252 0.29559 0.47201 1.0000
Ar302 Ar 1 0.18252 0.79559 0.97201 1.0000
Ar303 Ar 1 0.68252 0.29559 0.97201 1.0000
Ar304 Ar 1 0.68252 0.79559 0.47201 1.0000
Ar305 Ar 1 0.43200 0.20000 0.48127 1.0000
Ar306 Ar 1 0.43200 0.70000 0.98127 1.0000
Ar307 Ar 1 0.93200 0.20000 0.98127 1.0000
Ar308 Ar 1 0.93200 0.70000 0.48127 1.0000
Ar309 Ar 1 0.68040 0.29548 0.47172 1.0000
Ar310 Ar 1 0.68040 0.79548 0.97172 1.0000
Ar311 Ar 1 0.18040 0.29548 0.97172 1.0000
Ar312 Ar 1 0.18040 0.79548 0.47172 1.0000
Ar313 Ar 1 0.25501 0.46482 0.48221 1.0000
Ar314 Ar 1 0.25501 0.96482 0.98221 1.0000
Ar315 Ar 1 0.75501 0.46482 0.98221 1.0000
Ar316 Ar 1 0.75501 0.96482 0.48221 1.0000
Ar317 Ar 1 0.75445 0.46519 0.48184 1.0000
Ar318 Ar 1 0.75445 0.96519 0.98184 1.0000
Ar319 Ar 1 0.25445 0.46519 0.98184 1.0000
Ar320 Ar 1 0.25445 0.96519 0.48184 1.0000
B1 B 1 0.02331 0.02880 0.05321 1.0000
B2 B 1 0.02331 0.52880 0.55321 1.0000
B3 B 1 0.52331 0.02880 0.55321 1.0000
B4 B 1 0.52331 0.52880 0.05321 1.0000
B5 B 1 0.53202 0.03557 0.05282 1.0000
B6 B 1 0.53202 0.53557 0.55282 1.0000
B7 B 1 0.03202 0.03557 0.55282 1.0000
B8 B 1 0.03202 0.53557 0.05282 1.0000
B9 B 1 0.18855 0.30450 0.04704 1.0000
B10 B 1 0.18855 0.80450 0.54704 1.0000
B11 B 1 0.68855 0.30450 0.54704 1.0000
B12 B 1 0.68855 0.80450 0.04704 1.0000
B13 B 1 0.68116 0.30149 0.04695 1.0000
B14 B 1 0.68116 0.80149 0.54695 1.0000
B15 B 1 0.18116 0.30149 0.54695 1.0000
B16 B 1 0.18116 0.80149 0.04695 1.0000
B17 B 1 0.93379 0.22910 0.09828 1.0000
B18 B 1 0.93379 0.72910 0.59828 1.0000
B19 B 1 0.43379 0.22910 0.59828 1.0000
B20 B 1 0.43379 0.72910 0.09828 1.0000
B21 B 1 0.45120 0.22872 0.09819 1.0000
B22 B 1 0.45120 0.72872 0.59819 1.0000
B23 B 1 0.95120 0.22872 0.59819 1.0000
B24 B 1 0.95120 0.72872 0.09819 1.0000
B25 B 1 0.28736 0.43393 0.10126 1.0000
B26 B 1 0.28736 0.93393 0.60126 1.0000
B27 B 1 0.78736 0.43393 0.60126 1.0000
B28 B 1 0.78736 0.93393 0.10126 1.0000
B29 B 1 0.78692 0.42769 0.10194 1.0000
B30 B 1 0.78692 0.92769 0.60194 1.0000
B31 B 1 0.28692 0.42769 0.60194 1.0000
B32 B 1 0.28692 0.92769 0.10194 1.0000
B33 B 1 0.03987 0.06824 0.14807 1.0000
B34 B 1 0.03987 0.56824 0.64807 1.0000
B35 B 1 0.53987 0.06824 0.64807 1.0000
B36 B 1 0.53987 0.56824 0.14807 1.0000
B37 B 1 0.53585 0.06510 0.14851 1.0000
B38 B 1 0.53585 0.56510 0.64851 1.0000
B39 B 1 0.03585 0.06510 0.64851 1.0000
B40 B 1 0.03585 0.56510 0.14851 1.0000
B41 B 1 0.19016 0.26991 0.15158 1.0000
B42 B 1 0.19016 0.76991 0.65158 1.0000
B43 B 1 0.69016 0.26991 0.65158 1.0000
B44 B 1 0.69016 0.76991 0.15158 1.0000
B45 B 1 0.69419 0.27038 0.15271 1.0000
B46 B 1 0.69419 0.77038 0.65271 1.0000
B47 B 1 0.19419 0.27038 0.65271 1.0000
B48 B 1 0.19419 0.77038 0.15271 1.0000
B49 B 1 0.93767 0.19435 0.20250 1.0000
B50 B 1 0.93767 0.69435 0.70250 1.0000
B51 B 1 0.43767 0.19435 0.70250 1.0000
B52 B 1 0.43767 0.69435 0.20250 1.0000
B53 B 1 0.43292 0.18790 0.20259 1.0000
B54 B 1 0.43292 0.68790 0.70259 1.0000
B55 B 1 0.93292 0.18790 0.70259 1.0000
B56 B 1 0.93292 0.68790 0.20259 1.0000
B57 B 1 0.27472 0.47082 0.19647 1.0000
B58 B 1 0.27472 0.97082 0.69647 1.0000
B59 B 1 0.77472 0.47082 0.69647 1.0000
B60 B 1 0.77472 0.97082 0.19647 1.0000
B61 B 1 0.79075 0.46998 0.19732 1.0000
B62 B 1 0.79075 0.96998 0.69732 1.0000
B63 B 1 0.29075 0.46998 0.69732 1.0000
B64 B 1 0.29075 0.96998 0.19732 1.0000
B65 B 1 0.03607 0.00890 0.24997 1.0000
B66 B 1 0.03607 0.50890 0.74997 1.0000
B67 B 1 0.53607 0.00890 0.74997 1.0000
B68 B 1 0.53607 0.50890 0.24997 1.0000
B69 B 1 0.54753 0.00924 0.25073 1.0000
B70 B 1 0.54753 0.50924 0.75073 1.0000
B71 B 1 0.04753 0.00924 0.75073 1.0000
B72 B 1 0.04753 0.50924 0.25073 1.0000
B73 B 1 0.20233 0.32513 0.25050 1.0000
B74 B 1 0.20233 0.82513 0.75050 1.0000
B75 B 1 0.70233 0.32513 0.75050 1.0000
B76 B 1 0.70233 0.82513 0.25050 1.0000
B77 B 1 0.69557 0.32268 0.25029 1.0000
B78 B 1 0.69557 0.82268 0.75029 1.0000
B79 B 1 0.19557 0.32268 0.75029 1.0000
B80 B 1 0.19557 0.82268 0.25029 1.0000
B81 B 1 0.93919 0.19694 0.29712 1.0000
B82 B 1 0.93919 0.69694 0.79712 1.0000
B83 B 1 0.43919 0.19694 0.79712 1.0000
B84 B 1 0.43919 0.69694 0.29712 1.0000
B85 B 1 0.43250 0.19703 0.29745 1.0000
B86 B 1 0.43250 0.69703 0.79745 1.0000
B87 B 1 0.93250 0.19703 0.79745 1.0000
B88 B 1 0.93250 0.69703 0.29745 1.0000
B89 B 1 0.28913 0.46581 0.30342 1.0000
B90 B 1 0.28913 0.96581 0.80342 1.0000
B91 B 1 0.78913 0.46581 0.80342 1.0000
B92 B 1 0.78913 0.96581 0.30342 1.0000
B93 B 1 0.78507 0.46136 0.30288 1.0000
B94 B 1 0.78507 0.96136 0.80288 1.0000
B95 B 1 0.28507 0.46136 0.80288 1.0000
B96 B 1 0.28507 0.96136 0.30288 1.0000
B97 B 1 0.03549 0.07231 0.35209 1.0000
B98 B 1 0.03549 0.57231 0.85209 1.0000
B99 B 1 0.53549 0.07231 0.85209 1.0000
B100 B 1 0.53549 0.57231 0.35209 1.0000
B101 B 1 0.54098 0.06541 0.35093 1.0000
B102 B 1 0.54098 0.56541 0.85093 1.0000
B103 B 1 0.04098 0.06541 0.85093 1.0000
B104 B 1 0.04098 0.56541 0.35093 1.0000
B105 B 1 0.18331 0.26704 0.34864 1.0000
B106 B 1 0.18331 0.76704 0.84864 1.0000
B107 B 1 0.68331 0.26704 0.84864 1.0000
B108 B 1 0.68331 0.76704 0.34864 1.0000
B109 B 1 0.69788 0.26518 0.34786 1.0000
B110 B 1 0.69788 0.76518 0.84786 1.0000
B111 B 1 0.19788 0.26518 0.84786 1.0000
B112 B 1 0.19788 0.76518 0.34786 1.0000
B113 B 1 0.93440 0.22485 0.40227 1.0000
B114 B 1 0.93440 0.72485 0.90227 1.0000
B115 B 1 0.43440 0.22485 0.90227 1.0000
B116 B 1 0.43440 0.72485 0.40227 1.0000
B117 B 1 0.44709 0.22556 0.40200 1.0000
B118 B 1 0.44709 0.72556 0.90200 1.0000
B119 B 1 0.94709 0.22556 0.90200 1.0000
B120 B 1 0.94709 0.72556 0.40200 1.0000
B121 B 1 0.28665 0.42878 0.39814 1.0000
B122 B 1 0.28665 0.92878 0.89814 1.0000
B123 B 1 0.78665 0.42878 0.89814 1.0000
B124 B 1 0.78665 0.92878 0.39814 1.0000
B125 B 1 0.79172 0.43183 0.39803 1.0000
B126 B 1 0.79172 0.93183 0.89803 1.0000
B127 B 1 0.29172 0.43183 0.89803 1.0000
B128 B 1 0.29172 0.93183 0.39803 1.0000
B129 B 1 0.02675 0.02229 0.44667 1.0000
B130 B 1 0.02675 0.52229 0.94667 1.0000
B131 B 1 0.52675 0.02229 0.94667 1.0000
B132 B 1 0.52675 0.52229 0.44667 1.0000
B133 B 1 0.53965 0.02918 0.44729 1.0000
B134 B 1 0.53965 0.52918 0.94729 1.0000
B135 B 1 0.03965 0.02918 0.94729 1.0000
B136 B 1 0.03965 0.52918 0.44729 1.0000
B137 B 1 0.19695 0.30664 0.45287 1.0000
B138 B 1 0.19695 0.80664 0.95287 1.0000
B139 B 1 0.69695 0.30664 0.95287 1.0000
B140 B 1 0.69695 0.80664 0.45287 1.0000
B141 B 1 0.68300 0.30920 0.45242 1.0000
B142 B 1 0.68300 0.80920 0.95242 1.0000
B143 B 1 0.18300 0.30920 0.95242 1.0000
B144 B 1 0.18300 0.80920 0.45242 1.0000
B145 B 1 0.94932 0.17436 0.49912 1.0000
B146 B 1 0.94932 0.67436 0.99912 1.0000
B147 B 1 0.44932 0.17436 0.99912 1.0000
B148 B 1 0.44932 0.67436 0.49912 1.0000
B149 B 1 0.45126 0.17230 0.49990 1.0000
B150 B 1 0.45126 0.67230 0.99990 1.0000
B151 B 1 0.95126 0.17230 0.99990 1.0000
B152 B 1 0.95126 0.67230 0.49990 1.0000
B153 B 1 0.28663 0.48885 0.50083 1.0000
B154 B 1 0.28663 0.98885 0.00083 1.0000
B155 B 1 0.78663 0.48885 0.00083 1.0000
B156 B 1 0.78663 0.98885 0.50083 1.0000
B157 B 1 0.78581 0.48869 0.50049 1.0000
B158 B 1 0.78581 0.98869 0.00049 1.0000
B159 B 1 0.28581 0.48869 0.00049 1.0000
B160 B 1 0.28581 0.98869 0.50049 1.0000
B161 B 1 0.96547 0.97767 0.02397 1.0000
B162 B 1 0.96547 0.47767 0.52397 1.0000
B163 B 1 0.46547 0.97767 0.52397 1.0000
B164 B 1 0.46547 0.47767 0.02397 1.0000
B165 B 1 0.21504 0.01065 0.03152 1.0000
B166 B 1 0.21504 0.51065 0.53152 1.0000
B167 B 1 0.71504 0.01065 0.53152 1.0000
B168 B 1 0.71504 0.51065 0.03152 1.0000
B169 B 1 0.46516 0.97617 0.02440 1.0000
B170 B 1 0.46516 0.47617 0.52440 1.0000
B171 B 1 0.96516 0.97617 0.52440 1.0000
B172 B 1 0.96516 0.47617 0.02440 1.0000
B173 B 1 0.71548 0.00966 0.03108 1.0000
B174 B 1 0.71548 0.50966 0.53108 1.0000
B175 B 1 0.21548 0.00966 0.53108 1.0000
B176 B 1 0.21548 0.50966 0.03108 1.0000
B177 B 1 0.03828 0.12458 0.02849 1.0000
B178 B 1 0.03828 0.62458 0.52849 1.0000
B179 B 1 0.53828 0.12458 0.52849 1.0000
B180 B 1 0.53828 0.62458 0.02849 1.0000
B181 B 1 0.54350 0.12344 0.02711 1.0000
B182 B 1 0.54350 0.62344 0.52711 1.0000
B183 B 1 0.04350 0.12344 0.52711 1.0000
B184 B 1 0.04350 0.62344 0.02711 1.0000
B185 B 1 0.84448 0.22774 0.02709 1.0000
B186 B 1 0.84448 0.72774 0.52709 1.0000
B187 B 1 0.34448 0.22774 0.52709 1.0000
B188 B 1 0.34448 0.72774 0.02709 1.0000
B189 B 1 0.09752 0.26258 0.01843 1.0000
B190 B 1 0.09752 0.76258 0.51843 1.0000
B191 B 1 0.59752 0.26258 0.51843 1.0000
B192 B 1 0.59752 0.76258 0.01843 1.0000
B193 B 1 0.34720 0.22544 0.02695 1.0000
B194 B 1 0.34720 0.72544 0.52695 1.0000
B195 B 1 0.84720 0.22544 0.52695 1.0000
B196 B 1 0.84720 0.72544 0.02695 1.0000
B197 B 1 0.59632 0.26374 0.01782 1.0000
B198 B 1 0.59632 0.76374 0.51782 1.0000
B199 B 1 0.09632 0.26374 0.51782 1.0000
B200 B 1 0.09632 0.76374 0.01782 1.0000
B201 B 1 0.28313 0.36924 0.02027 1.0000
B202 B 1 0.28313 0.86924 0.52027 1.0000
B203 B 1 0.78313 0.36924 0.52027 1.0000
B204 B 1 0.78313 0.86924 0.02027 1.0000
B205 B 1 0.77913 0.37097 0.02058 1.0000
B206 B 1 0.77913 0.87097 0.52058 1.0000
B207 B 1 0.27913 0.37097 0.52058 1.0000
B208 B 1 0.27913 0.87097 0.02058 1.0000
B209 B 1 0.86479 0.03536 0.07910 1.0000
B210 B 1 0.86479 0.53536 0.57910 1.0000
B211 B 1 0.36479 0.03536 0.57910 1.0000
B212 B 1 0.36479 0.53536 0.07910 1.0000
B213 B 1 0.12074 0.00451 0.08279 1.0000
B214 B 1 0.12074 0.50451 0.58279 1.0000
B215 B 1 0.62074 0.00451 0.58279 1.0000
B216 B 1 0.62074 0.50451 0.08279 1.0000
B217 B 1 0.36614 0.96695 0.07245 1.0000
B218 B 1 0.36614 0.46695 0.57245 1.0000
B219 B 1 0.86614 0.96695 0.57245 1.0000
B220 B 1 0.86614 0.46695 0.07245 1.0000
B221 B 1 0.60971 0.00404 0.08268 1.0000
B222 B 1 0.60971 0.50404 0.58268 1.0000
B223 B 1 0.10971 0.00404 0.58268 1.0000
B224 B 1 0.10971 0.50404 0.08268 1.0000
B225 B 1 0.04317 0.14369 0.07451 1.0000
B226 B 1 0.04317 0.64369 0.57451 1.0000
B227 B 1 0.54317 0.14369 0.57451 1.0000
B228 B 1 0.54317 0.64369 0.07451 1.0000
B229 B 1 0.42613 0.11183 0.07778 1.0000
B230 B 1 0.42613 0.61183 0.57778 1.0000
B231 B 1 0.92613 0.11183 0.57778 1.0000
B232 B 1 0.92613 0.61183 0.07778 1.0000
B233 B 1 0.86093 0.25131 0.06786 1.0000
B234 B 1 0.86093 0.75131 0.56786 1.0000
B235 B 1 0.36093 0.25131 0.56786 1.0000
B236 B 1 0.36093 0.75131 0.06786 1.0000
B237 B 1 0.10255 0.29035 0.07728 1.0000
B238 B 1 0.10255 0.79035 0.57728 1.0000
B239 B 1 0.60255 0.29035 0.57728 1.0000
B240 B 1 0.60255 0.79035 0.07728 1.0000
B241 B 1 0.35300 0.25204 0.06899 1.0000
B242 B 1 0.35300 0.75204 0.56899 1.0000
B243 B 1 0.85300 0.25204 0.56899 1.0000
B244 B 1 0.85300 0.75204 0.06899 1.0000
B245 B 1 0.60949 0.21645 0.07209 1.0000
B246 B 1 0.60949 0.71645 0.57209 1.0000
B247 B 1 0.10949 0.21645 0.57209 1.0000
B248 B 1 0.10949 0.71645 0.07209 1.0000
B249 B 1 0.27766 0.39862 0.07004 1.0000
B250 B 1 0.27766 0.89862 0.57004 1.0000
B251 B 1 0.77766 0.39862 0.57004 1.0000
B252 B 1 0.77766 0.89862 0.07004 1.0000
B253 B 1 0.68080 0.36035 0.07652 1.0000
B254 B 1 0.68080 0.86035 0.57652 1.0000
B255 B 1 0.18080 0.36035 0.57652 1.0000
B256 B 1 0.18080 0.86035 0.07652 1.0000
B257 B 1 0.96044 0.97418 0.12417 1.0000
B258 B 1 0.96044 0.47418 0.62417 1.0000
B259 B 1 0.46044 0.97418 0.62417 1.0000
B260 B 1 0.46044 0.47418 0.12417 1.0000
B261 B 1 0.20800 0.02253 0.12546 1.0000
B262 B 1 0.20800 0.52253 0.62546 1.0000
B263 B 1 0.70800 0.02253 0.62546 1.0000
B264 B 1 0.70800 0.52253 0.12546 1.0000
B265 B 1 0.45876 0.97612 0.12378 1.0000
B266 B 1 0.45876 0.47612 0.62378 1.0000
B267 B 1 0.95876 0.97612 0.62378 1.0000
B268 B 1 0.95876 0.47612 0.12378 1.0000
B269 B 1 0.71016 0.01902 0.12657 1.0000
B270 B 1 0.71016 0.51902 0.62657 1.0000
B271 B 1 0.21016 0.01902 0.62657 1.0000
B272 B 1 0.21016 0.51902 0.12657 1.0000
B273 B 1 0.01672 0.12187 0.11855 1.0000
B274 B 1 0.01672 0.62187 0.61855 1.0000
B275 B 1 0.51672 0.12187 0.61855 1.0000
B276 B 1 0.51672 0.62187 0.11855 1.0000
B277 B 1 0.53102 0.12274 0.11909 1.0000
B278 B 1 0.53102 0.62274 0.61909 1.0000
B279 B 1 0.03102 0.12274 0.61909 1.0000
B280 B 1 0.03102 0.62274 0.11909 1.0000
B281 B 1 0.84847 0.23020 0.12863 1.0000
B282 B 1 0.84847 0.73020 0.62863 1.0000
B283 B 1 0.34847 0.23020 0.62863 1.0000
B284 B 1 0.34847 0.73020 0.12863 1.0000
B285 B 1 0.09963 0.26688 0.12146 1.0000
B286 B 1 0.09963 0.76688 0.62146 1.0000
B287 B 1 0.59963 0.26688 0.62146 1.0000
B288 B 1 0.59963 0.76688 0.12146 1.0000
B289 B 1 0.34668 0.22426 0.12767 1.0000
B290 B 1 0.34668 0.72426 0.62767 1.0000
B291 B 1 0.84668 0.22426 0.62767 1.0000
B292 B 1 0.84668 0.72426 0.12767 1.0000
B293 B 1 0.59670 0.27066 0.12288 1.0000
B294 B 1 0.59670 0.77066 0.62288 1.0000
B295 B 1 0.09670 0.27066 0.62288 1.0000
B296 B 1 0.09670 0.77066 0.12288 1.0000
B297 B 1 0.27857 0.37158 0.13039 1.0000
B298 B 1 0.27857 0.87158 0.63039 1.0000
B299 B 1 0.77857 0.37158 0.63039 1.0000
B300 B 1 0.77857 0.87158 0.13039 1.0000
B301 B 1 0.77435 0.37635 0.13196 1.0000
B302 B 1 0.77435 0.87635 0.63196 1.0000
B303 B 1 0.27435 0.37635 0.63196 1.0000
B304 B 1 0.27435 0.87635 0.13196 1.0000
B305 B 1 0.87523 0.99343 0.16729 1.0000
B306 B 1 0.87523 0.49343 0.66729 1.0000
B307 B 1 0.37523 0.99343 0.66729 1.0000
B308 B 1 0.37523 0.49343 0.16729 1.0000
B309 B 1 0.11944 0.03418 0.17769 1.0000
B310 B 1 0.11944 0.53418 0.67769 1.0000
B311 B 1 0.61944 0.03418 0.67769 1.0000
B312 B 1 0.61944 0.53418 0.17769 1.0000
B313 B 1 0.36308 0.99564 0.16748 1.0000
B314 B 1 0.36308 0.49564 0.66748 1.0000
B315 B 1 0.86308 0.99564 0.66748 1.0000
B316 B 1 0.86308 0.49564 0.16748 1.0000
B317 B 1 0.61930 0.96299 0.17025 1.0000
B318 B 1 0.61930 0.46299 0.67025 1.0000
B319 B 1 0.11930 0.96299 0.67025 1.0000
B320 B 1 0.11930 0.46299 0.17025 1.0000
B321 B 1 0.93323 0.13958 0.17288 1.0000
B322 B 1 0.93323 0.63958 0.67288 1.0000
B323 B 1 0.43323 0.13958 0.67288 1.0000
B324 B 1 0.43323 0.63958 0.17288 1.0000
B325 B 1 0.53602 0.10036 0.17960 1.0000
B326 B 1 0.53602 0.60036 0.67960 1.0000
B327 B 1 0.03602 0.10036 0.67960 1.0000
B328 B 1 0.03602 0.60036 0.17960 1.0000
B329 B 1 0.86308 0.28276 0.17792 1.0000
B330 B 1 0.86308 0.78276 0.67792 1.0000
B331 B 1 0.36308 0.28276 0.67792 1.0000
B332 B 1 0.36308 0.78276 0.17792 1.0000
B333 B 1 0.11713 0.24625 0.18189 1.0000
B334 B 1 0.11713 0.74625 0.68189 1.0000
B335 B 1 0.61713 0.24625 0.68189 1.0000
B336 B 1 0.61713 0.74625 0.18189 1.0000
B337 B 1 0.36134 0.20851 0.17220 1.0000
B338 B 1 0.36134 0.70851 0.67220 1.0000
B339 B 1 0.86134 0.20851 0.67220 1.0000
B340 B 1 0.86134 0.70851 0.17220 1.0000
B341 B 1 0.60790 0.24769 0.18233 1.0000
B342 B 1 0.60790 0.74769 0.68233 1.0000
B343 B 1 0.10790 0.24769 0.68233 1.0000
B344 B 1 0.10790 0.74769 0.18233 1.0000
B345 B 1 0.29727 0.35425 0.17561 1.0000
B346 B 1 0.29727 0.85425 0.67561 1.0000
B347 B 1 0.79727 0.35425 0.67561 1.0000
B348 B 1 0.79727 0.85425 0.17561 1.0000
B349 B 1 0.67902 0.38824 0.17331 1.0000
B350 B 1 0.67902 0.88824 0.67331 1.0000
B351 B 1 0.17902 0.38824 0.67331 1.0000
B352 B 1 0.17902 0.88824 0.17331 1.0000
B353 B 1 0.95121 0.98309 0.21988 1.0000
B354 B 1 0.95121 0.48309 0.71988 1.0000
B355 B 1 0.45121 0.98309 0.71988 1.0000
B356 B 1 0.45121 0.48309 0.21988 1.0000
B357 B 1 0.20109 0.02038 0.22560 1.0000
B358 B 1 0.20109 0.52038 0.72560 1.0000
B359 B 1 0.70109 0.02038 0.72560 1.0000
B360 B 1 0.70109 0.52038 0.22560 1.0000
B361 B 1 0.45224 0.97744 0.22162 1.0000
B362 B 1 0.45224 0.47744 0.72162 1.0000
B363 B 1 0.95224 0.97744 0.72162 1.0000
B364 B 1 0.95224 0.47744 0.22162 1.0000
B365 B 1 0.70138 0.02185 0.22520 1.0000
B366 B 1 0.70138 0.52185 0.72520 1.0000
B367 B 1 0.20138 0.02185 0.72520 1.0000
B368 B 1 0.20138 0.52185 0.22520 1.0000
B369 B 1 0.01610 0.12601 0.22966 1.0000
B370 B 1 0.01610 0.62601 0.72966 1.0000
B371 B 1 0.51610 0.12601 0.72966 1.0000
B372 B 1 0.51610 0.62601 0.22966 1.0000
B373 B 1 0.50938 0.12330 0.23024 1.0000
B374 B 1 0.50938 0.62330 0.73024 1.0000
B375 B 1 0.00938 0.12330 0.73024 1.0000
B376 B 1 0.00938 0.62330 0.23024 1.0000
B377 B 1 0.83024 0.23072 0.23071 1.0000
B378 B 1 0.83024 0.73072 0.73071 1.0000
B379 B 1 0.33024 0.23072 0.73071 1.0000
B380 B 1 0.33024 0.73072 0.23071 1.0000
B381 B 1 0.07875 0.27201 0.22448 1.0000
B382 B 1 0.07875 0.77201 0.72448 1.0000
B383 B 1 0.57875 0.27201 0.72448 1.0000
B384 B 1 0.57875 0.77201 0.22448 1.0000
B385 B 1 0.32898 0.23136 0.23066 1.0000
B386 B 1 0.32898 0.73136 0.73066 1.0000
B387 B 1 0.82898 0.23136 0.73066 1.0000
B388 B 1 0.82898 0.73136 0.23066 1.0000
B389 B 1 0.57759 0.26756 0.22387 1.0000
B390 B 1 0.57759 0.76756 0.72387 1.0000
B391 B 1 0.07759 0.26756 0.72387 1.0000
B392 B 1 0.07759 0.76756 0.22387 1.0000
B393 B 1 0.26947 0.37294 0.22080 1.0000
B394 B 1 0.26947 0.87294 0.72080 1.0000
B395 B 1 0.76947 0.37294 0.72080 1.0000
B396 B 1 0.76947 0.87294 0.22080 1.0000
B397 B 1 0.76357 0.37077 0.22090 1.0000
B398 B 1 0.76357 0.87077 0.72090 1.0000
B399 B 1 0.26357 0.37077 0.72090 1.0000
B400 B 1 0.26357 0.87077 0.22090 1.0000
B401 B 1 0.86505 0.98081 0.27293 1.0000
B402 B 1 0.86505 0.48081 0.77293 1.0000
B403 B 1 0.36505 0.98081 0.77293 1.0000
B404 B 1 0.36505 0.48081 0.27293 1.0000
B405 B 1 0.11728 0.01166 0.28050 1.0000
B406 B 1 0.11728 0.51166 0.78050 1.0000
B407 B 1 0.61728 0.01166 0.78050 1.0000
B408 B 1 0.61728 0.51166 0.28050 1.0000
B409 B 1 0.36767 0.97277 0.27257 1.0000
B410 B 1 0.36767 0.47277 0.77257 1.0000
B411 B 1 0.86767 0.97277 0.77257 1.0000
B412 B 1 0.86767 0.47277 0.27257 1.0000
B413 B 1 0.61405 0.01162 0.28149 1.0000
B414 B 1 0.61405 0.51162 0.78149 1.0000
B415 B 1 0.11405 0.01162 0.78149 1.0000
B416 B 1 0.11405 0.51162 0.28149 1.0000
B417 B 1 0.95984 0.12214 0.26904 1.0000
B418 B 1 0.95984 0.62214 0.76904 1.0000
B419 B 1 0.45984 0.12214 0.76904 1.0000
B420 B 1 0.45984 0.62214 0.26904 1.0000
B421 B 1 0.44879 0.11770 0.26981 1.0000
B422 B 1 0.44879 0.61770 0.76981 1.0000
B423 B 1 0.94879 0.11770 0.76981 1.0000
B424 B 1 0.94879 0.61770 0.26981 1.0000
B425 B 1 0.76929 0.22311 0.27351 1.0000
B426 B 1 0.76929 0.72311 0.77351 1.0000
B427 B 1 0.26929 0.22311 0.77351 1.0000
B428 B 1 0.26929 0.72311 0.27351 1.0000
B429 B 1 0.01841 0.26978 0.27030 1.0000
B430 B 1 0.01841 0.76978 0.77030 1.0000
B431 B 1 0.51841 0.26978 0.77030 1.0000
B432 B 1 0.51841 0.76978 0.27030 1.0000
B433 B 1 0.26732 0.22413 0.27369 1.0000
B434 B 1 0.26732 0.72413 0.77369 1.0000
B435 B 1 0.76732 0.22413 0.77369 1.0000
B436 B 1 0.76732 0.72413 0.27369 1.0000
B437 B 1 0.51778 0.26532 0.27027 1.0000
B438 B 1 0.51778 0.76532 0.77027 1.0000
B439 B 1 0.01778 0.26532 0.77027 1.0000
B440 B 1 0.01778 0.76532 0.27027 1.0000
B441 B 1 0.20067 0.36812 0.28124 1.0000
B442 B 1 0.20067 0.86812 0.78124 1.0000
B443 B 1 0.70067 0.36812 0.78124 1.0000
B444 B 1 0.70067 0.86812 0.28124 1.0000
B445 B 1 0.69288 0.36573 0.28107 1.0000
B446 B 1 0.69288 0.86573 0.78107 1.0000
B447 B 1 0.19288 0.36573 0.78107 1.0000
B448 B 1 0.19288 0.86573 0.28107 1.0000
B449 B 1 0.86830 0.99545 0.33348 1.0000
B450 B 1 0.86830 0.49545 0.83348 1.0000
B451 B 1 0.36830 0.99545 0.83348 1.0000
B452 B 1 0.36830 0.49545 0.33348 1.0000
B453 B 1 0.11483 0.03043 0.32267 1.0000
B454 B 1 0.11483 0.53043 0.82267 1.0000
B455 B 1 0.61483 0.03043 0.82267 1.0000
B456 B 1 0.61483 0.53043 0.32267 1.0000
B457 B 1 0.36017 0.00074 0.33242 1.0000
B458 B 1 0.36017 0.50074 0.83242 1.0000
B459 B 1 0.86017 0.00074 0.83242 1.0000
B460 B 1 0.86017 0.50074 0.33242 1.0000
B461 B 1 0.61297 0.96528 0.32792 1.0000
B462 B 1 0.61297 0.46528 0.82792 1.0000
B463 B 1 0.11297 0.96528 0.82792 1.0000
B464 B 1 0.11297 0.46528 0.32792 1.0000
B465 B 1 0.93298 0.13839 0.32644 1.0000
B466 B 1 0.93298 0.63839 0.82644 1.0000
B467 B 1 0.43298 0.13839 0.82644 1.0000
B468 B 1 0.43298 0.63839 0.32644 1.0000
B469 B 1 0.53016 0.10446 0.31991 1.0000
B470 B 1 0.53016 0.60446 0.81991 1.0000
B471 B 1 0.03016 0.10446 0.81991 1.0000
B472 B 1 0.03016 0.60446 0.31991 1.0000
B473 B 1 0.86148 0.28144 0.32215 1.0000
B474 B 1 0.86148 0.78144 0.82215 1.0000
B475 B 1 0.36148 0.28144 0.82215 1.0000
B476 B 1 0.36148 0.78144 0.32215 1.0000
B477 B 1 0.11564 0.24608 0.31821 1.0000
B478 B 1 0.11564 0.74608 0.81821 1.0000
B479 B 1 0.61564 0.24608 0.81821 1.0000
B480 B 1 0.61564 0.74608 0.31821 1.0000
B481 B 1 0.35817 0.21043 0.32810 1.0000
B482 B 1 0.35817 0.71043 0.82810 1.0000
B483 B 1 0.85817 0.21043 0.82810 1.0000
B484 B 1 0.85817 0.71043 0.32810 1.0000
B485 B 1 0.60566 0.25037 0.31821 1.0000
B486 B 1 0.60566 0.75037 0.81821 1.0000
B487 B 1 0.10566 0.25037 0.81821 1.0000
B488 B 1 0.10566 0.75037 0.31821 1.0000
B489 B 1 0.29305 0.35586 0.32543 1.0000
B490 B 1 0.29305 0.85586 0.82543 1.0000
B491 B 1 0.79305 0.35586 0.82543 1.0000
B492 B 1 0.79305 0.85586 0.32543 1.0000
B493 B 1 0.68387 0.38747 0.32871 1.0000
B494 B 1 0.68387 0.88747 0.82871 1.0000
B495 B 1 0.18387 0.38747 0.82871 1.0000
B496 B 1 0.18387 0.88747 0.32871 1.0000
B497 B 1 0.95730 0.97513 0.37553 1.0000
B498 B 1 0.95730 0.47513 0.87553 1.0000
B499 B 1 0.45730 0.97513 0.87553 1.0000
B500 B 1 0.45730 0.47513 0.37553 1.0000
B501 B 1 0.20763 0.01843 0.37297 1.0000
B502 B 1 0.20763 0.51843 0.87297 1.0000
B503 B 1 0.70763 0.01843 0.87297 1.0000
B504 B 1 0.70763 0.51843 0.37297 1.0000
B505 B 1 0.45804 0.97407 0.37506 1.0000
B506 B 1 0.45804 0.47407 0.87506 1.0000
B507 B 1 0.95804 0.97407 0.87506 1.0000
B508 B 1 0.95804 0.47407 0.37506 1.0000
B509 B 1 0.70792 0.01982 0.37353 1.0000
B510 B 1 0.70792 0.51982 0.87353 1.0000
B511 B 1 0.20792 0.01982 0.87353 1.0000
B512 B 1 0.20792 0.51982 0.37353 1.0000
B513 B 1 0.02510 0.12080 0.38207 1.0000
B514 B 1 0.02510 0.62080 0.88207 1.0000
B515 B 1 0.52510 0.12080 0.88207 1.0000
B516 B 1 0.52510 0.62080 0.38207 1.0000
B517 B 1 0.52151 0.12008 0.38091 1.0000
B518 B 1 0.52151 0.62008 0.88091 1.0000
B519 B 1 0.02151 0.12008 0.88091 1.0000
B520 B 1 0.02151 0.62008 0.38091 1.0000
B521 B 1 0.84576 0.22357 0.37223 1.0000
B522 B 1 0.84576 0.72357 0.87223 1.0000
B523 B 1 0.34576 0.22357 0.87223 1.0000
B524 B 1 0.34576 0.72357 0.37223 1.0000
B525 B 1 0.09630 0.26815 0.37864 1.0000
B526 B 1 0.09630 0.76815 0.87864 1.0000
B527 B 1 0.59630 0.26815 0.87864 1.0000
B528 B 1 0.59630 0.76815 0.37864 1.0000
B529 B 1 0.34475 0.22541 0.37221 1.0000
B530 B 1 0.34475 0.72541 0.87221 1.0000
B531 B 1 0.84475 0.22541 0.87221 1.0000
B532 B 1 0.84475 0.72541 0.37221 1.0000
B533 B 1 0.59553 0.26715 0.37730 1.0000
B534 B 1 0.59553 0.76715 0.87730 1.0000
B535 B 1 0.09553 0.26715 0.87730 1.0000
B536 B 1 0.09553 0.76715 0.37730 1.0000
B537 B 1 0.27131 0.37337 0.36860 1.0000
B538 B 1 0.27131 0.87337 0.86860 1.0000
B539 B 1 0.77131 0.37337 0.86860 1.0000
B540 B 1 0.77131 0.87337 0.36860 1.0000
B541 B 1 0.77472 0.37183 0.36876 1.0000
B542 B 1 0.77472 0.87183 0.86876 1.0000
B543 B 1 0.27472 0.37183 0.86876 1.0000
B544 B 1 0.27472 0.87183 0.36876 1.0000
B545 B 1 0.86482 0.02894 0.42062 1.0000
B546 B 1 0.86482 0.52894 0.92062 1.0000
B547 B 1 0.36482 0.02894 0.92062 1.0000
B548 B 1 0.36482 0.52894 0.42062 1.0000
B549 B 1 0.12484 0.00585 0.41725 1.0000
B550 B 1 0.12484 0.50585 0.91725 1.0000
B551 B 1 0.62484 0.00585 0.91725 1.0000
B552 B 1 0.62484 0.50585 0.41725 1.0000
B553 B 1 0.37026 0.96494 0.42775 1.0000
B554 B 1 0.37026 0.46494 0.92775 1.0000
B555 B 1 0.87026 0.96494 0.92775 1.0000
B556 B 1 0.87026 0.46494 0.42775 1.0000
B557 B 1 0.61250 0.99453 0.41758 1.0000
B558 B 1 0.61250 0.49453 0.91758 1.0000
B559 B 1 0.11250 0.99453 0.91758 1.0000
B560 B 1 0.11250 0.49453 0.41758 1.0000
B561 B 1 0.03729 0.14034 0.42652 1.0000
B562 B 1 0.03729 0.64034 0.92652 1.0000
B563 B 1 0.53729 0.14034 0.92652 1.0000
B564 B 1 0.53729 0.64034 0.42652 1.0000
B565 B 1 0.43439 0.10910 0.42224 1.0000
B566 B 1 0.43439 0.60910 0.92224 1.0000
B567 B 1 0.93439 0.10910 0.92224 1.0000
B568 B 1 0.93439 0.60910 0.42224 1.0000
B569 B 1 0.86550 0.25449 0.43264 1.0000
B570 B 1 0.86550 0.75449 0.93264 1.0000
B571 B 1 0.36550 0.25449 0.93264 1.0000
B572 B 1 0.36550 0.75449 0.43264 1.0000
B573 B 1 0.10837 0.28407 0.42256 1.0000
B574 B 1 0.10837 0.78407 0.92256 1.0000
B575 B 1 0.60837 0.28407 0.92256 1.0000
B576 B 1 0.60837 0.78407 0.42256 1.0000
B577 B 1 0.35841 0.24435 0.43203 1.0000
B578 B 1 0.35841 0.74435 0.93203 1.0000
B579 B 1 0.85841 0.24435 0.93203 1.0000
B580 B 1 0.85841 0.74435 0.43203 1.0000
B581 B 1 0.61450 0.21651 0.42794 1.0000
B582 B 1 0.61450 0.71651 0.92794 1.0000
B583 B 1 0.11450 0.21651 0.92794 1.0000
B584 B 1 0.11450 0.71651 0.42794 1.0000
B585 B 1 0.28704 0.38952 0.42918 1.0000
B586 B 1 0.28704 0.88952 0.92918 1.0000
B587 B 1 0.78704 0.38952 0.92918 1.0000
B588 B 1 0.78704 0.88952 0.42918 1.0000
B589 B 1 0.68536 0.35960 0.42246 1.0000
B590 B 1 0.68536 0.85960 0.92246 1.0000
B591 B 1 0.18536 0.35960 0.92246 1.0000
B592 B 1 0.18536 0.85960 0.42246 1.0000
B593 B 1 0.88988 0.97674 0.47172 1.0000
B594 B 1 0.88988 0.47674 0.97172 1.0000
B595 B 1 0.38988 0.97674 0.97172 1.0000
B596 B 1 0.38988 0.47674 0.47172 1.0000
B597 B 1 0.13973 0.02249 0.47529 1.0000
B598 B 1 0.13973 0.52249 0.97529 1.0000
B599 B 1 0.63973 0.02249 0.97529 1.0000
B600 B 1 0.63973 0.52249 0.47529 1.0000
B601 B 1 0.38978 0.97772 0.47128 1.0000
B602 B 1 0.38978 0.47772 0.97128 1.0000
B603 B 1 0.88978 0.97772 0.97128 1.0000
B604 B 1 0.88978 0.47772 0.47128 1.0000
B605 B 1 0.64061 0.02355 0.47609 1.0000
B606 B 1 0.64061 0.52355 0.97609 1.0000
B607 B 1 0.14061 0.02355 0.97609 1.0000
B608 B 1 0.14061 0.52355 0.47609 1.0000
B609 B 1 0.95702 0.12673 0.46855 1.0000
B610 B 1 0.95702 0.62673 0.96855 1.0000
B611 B 1 0.45702 0.12673 0.96855 1.0000
B612 B 1 0.45702 0.62673 0.46855 1.0000
B613 B 1 0.45817 0.12756 0.46933 1.0000
B614 B 1 0.45817 0.62756 0.96933 1.0000
B615 B 1 0.95817 0.12756 0.96933 1.0000
B616 B 1 0.95817 0.62756 0.46933 1.0000
B617 B 1 0.77818 0.22704 0.47767 1.0000
B618 B 1 0.77818 0.72704 0.97767 1.0000
B619 B 1 0.27818 0.22704 0.97767 1.0000
B620 B 1 0.27818 0.72704 0.47767 1.0000
B621 B 1 0.02843 0.27144 0.47573 1.0000
B622 B 1 0.02843 0.77144 0.97573 1.0000
B623 B 1 0.52843 0.27144 0.97573 1.0000
B624 B 1 0.52843 0.77144 0.47573 1.0000
B625 B 1 0.27839 0.22882 0.47931 1.0000
B626 B 1 0.27839 0.72882 0.97931 1.0000
B627 B 1 0.77839 0.22882 0.97931 1.0000
B628 B 1 0.77839 0.72882 0.47931 1.0000
B629 B 1 0.52864 0.27213 0.47694 1.0000
B630 B 1 0.52864 0.77213 0.97694 1.0000
B631 B 1 0.02864 0.27213 0.97694 1.0000
B632 B 1 0.02864 0.77213 0.47694 1.0000
B633 B 1 0.20922 0.37595 0.48142 1.0000
B634 B 1 0.20922 0.87595 0.98142 1.0000
B635 B 1 0.70922 0.37595 0.98142 1.0000
B636 B 1 0.70922 0.87595 0.48142 1.0000
B637 B 1 0.71419 0.37524 0.48105 1.0000
B638 B 1 0.71419 0.87524 0.98105 1.0000
B639 B 1 0.21419 0.37524 0.98105 1.0000
B640 B 1 0.21419 0.87524 0.48105 1.0000
#End of data_4_AMCSD0009625

data_5_AMCSD0020733
_chemical_name_common		'beta-tridymite'
_chemical_formula_structural	'SiO2'
_chemical_formula_sum		'Ar1 B2'
_citation_special_details	'original source structure doi: 10.1107/S0365110X67003287'
;
File: AMCSD0020733.cif.
;
_cell_length_a			5.67562
_cell_length_b			3.27290
_cell_length_c			5.35093
_cell_angle_alpha		90.00000
_cell_angle_beta		90.00000
_cell_angle_gamma		90.00000
_cell_volume			99.39729
_cell_formula_units_Z		8
_symmetry_space_group_name_H-M	'P 1'
_symmetry_Int_Tables_number	1
loop_
_symmetry_equiv_pos_site_id
_symmetry_equiv_pos_as_xyz
1 x,y,z
loop_
_atom_site_label
_atom_site_type_symbol
_atom_site_symmetry_multiplicity
_atom_site_fract_x
_atom_site_fract_y
_atom_site_fract_z
_atom_site_occupancy
Ar1 Ar 1 0.16846 0.53589 0.43857 1.0000
Ar2 Ar 1 0.83154 0.46411 0.93857 1.0000
Ar3 Ar 1 0.16846 0.46411 0.06143 1.0000
Ar4 Ar 1 0.83154 0.53589 0.56143 1.0000
Ar5 Ar 1 0.66846 0.03589 0.43857 1.0000
Ar6 Ar 1 0.33154 0.96411 0.93857 1.0000
Ar7 Ar 1 0.66846 0.96411 0.06143 1.0000
Ar8 Ar 1 0.33154 0.03589 0.56143 1.0000
B1 B 1 0.33360 0.00000 0.75000 1.0000
B2 B 1 0.66640 0.00000 0.25000 1.0000
B3 B 1 0.83360 0.50000 0.75000 1.0000
B4 B 1 0.16640 0.50000 0.25000 1.0000
B5 B 1 0.00000 0.55970 0.50000 1.0000
B6 B 1 0.00000 0.44030 0.00000 1.0000
B7 B 1 0.50000 0.05970 0.50000 1.0000
B8 B 1 0.50000 0.94030 0.00000 1.0000
B9 B 1 0.25470 0.30290 0.52130 1.0000
B10 B 1 0.74530 0.69710 0.02130 1.0000
B11 B 1 0.25470 0.69710 0.97870 1.0000
B12 B 1 0.74530 0.30290 0.47870 1.0000
B13 B 1 0.75470 0.80290 0.52130 1.0000
B14 B 1 0.24530 0.19710 0.02130 1.0000
B15 B 1 0.75470 0.19710 0.97870 1.0000
B16 B 1 0.24530 0.80290 0.47870 1.0000
#End of data_5_AMCSD0020733

data_6_ICSD173227
_chemical_name_common		'alpha-quartz'
_chemical_formula_structural	'SiO2'
_chemical_formula_sum		'Ar1 B2'
_citation_special_details	'original source structure doi: 10.1134/S1063774507030145'
;
File: ICSD173227.cif.
;
_cell_length_a			3.06533
_cell_length_b			3.06533
_cell_length_c			3.37214
_cell_angle_alpha		90.00000
_cell_angle_beta		90.00000
_cell_angle_gamma		120.00000
_cell_volume			27.44036
_cell_formula_units_Z		3
_symmetry_space_group_name_H-M	'P 1'
_symmetry_Int_Tables_number	1
loop_
_symmetry_equiv_pos_site_id
_symmetry_equiv_pos_as_xyz
1 x,y,z
loop_
_atom_site_label
_atom_site_type_symbol
_atom_site_symmetry_multiplicity
_atom_site_fract_x
_atom_site_fract_y
_atom_site_fract_z
_atom_site_occupancy
Ar1 Ar 1 0.53070 0.00000 0.66667 1.0000
Ar2 Ar 1 1.00000 0.53070 0.33333 1.0000
Ar3 Ar 1 0.46930 0.46930 0.00000 1.0000
B1 B 1 0.58760 0.73360 0.78540 1.0000
B2 B 1 0.26640 0.85400 0.45207 1.0000
B3 B 1 0.14600 0.41240 0.11873 1.0000
B4 B 1 0.73360 0.58760 0.21460 1.0000
B5 B 1 0.85400 0.26640 0.54793 1.0000
B6 B 1 0.41240 0.14600 0.88127 1.0000
#End of data_6_ICSD173227

data_7_AMCSD0017659
_chemical_name_common		'alpha-cristobalite'
_chemical_formula_structural	'SiO2'
_chemical_formula_sum		'Ar1 B2'
_citation_special_details	'original source structure doi: 10.1524/zkri.1935.92.1.82'
;
File: AMCSD0017659.cif.
;
_cell_length_a			3.12287
_cell_length_b			3.12287
_cell_length_c			4.35340
_cell_angle_alpha		90.00000
_cell_angle_beta		90.00000
_cell_angle_gamma		90.00000
_cell_volume			42.45570
_cell_formula_units_Z		4
_symmetry_space_group_name_H-M	'P 1'
_symmetry_Int_Tables_number	1
loop_
_symmetry_equiv_pos_site_id
_symmetry_equiv_pos_as_xyz
1 x,y,z
loop_
_atom_site_label
_atom_site_type_symbol
_atom_site_symmetry_multiplicity
_atom_site_fract_x
_atom_site_fract_y
_atom_site_fract_z
_atom_site_occupancy
Ar1 Ar 1 0.30000 0.30000 0.00000 1.0000
Ar2 Ar 1 0.70000 0.70000 0.50000 1.0000
Ar3 Ar 1 0.20000 0.80000 0.25000 1.0000
Ar4 Ar 1 0.80000 0.20000 0.75000 1.0000
B1 B 1 0.24500 0.10000 0.17500 1.0000
B2 B 1 0.75500 0.90000 0.67500 1.0000
B3 B 1 0.40000 0.74500 0.42500 1.0000
B4 B 1 0.60000 0.25500 0.92500 1.0000
B5 B 1 0.25500 0.60000 0.07500 1.0000
B6 B 1 0.74500 0.40000 0.57500 1.0000
B7 B 1 0.10000 0.24500 0.82500 1.0000
B8 B 1 0.90000 0.75500 0.32500 1.0000
#End of data_7_AMCSD0017659

data_8_WL1981
_chemical_name_common		'beta-quartz'
_chemical_formula_structural	'SiO2'
_chemical_formula_sum		'Ar1 B2'
_citation_special_details	'original source structure doi: 10.1016/0022-4596(81)90449-7'
;
File: WL1981.cif.
;
_cell_length_a			3.14870
_cell_length_b			3.14870
_cell_length_c			3.44003
_cell_angle_alpha		90.00000
_cell_angle_beta		90.00000
_cell_angle_gamma		120.00000
_cell_volume			29.53633
_cell_formula_units_Z		3
_symmetry_space_group_name_H-M	'P 1'
_symmetry_Int_Tables_number	1
loop_
_symmetry_equiv_pos_site_id
_symmetry_equiv_pos_as_xyz
1 x,y,z
loop_
_atom_site_label
_atom_site_type_symbol
_atom_site_symmetry_multiplicity
_atom_site_fract_x
_atom_site_fract_y
_atom_site_fract_z
_atom_site_occupancy
Ar1 Ar 1 0.50000 0.00000 0.00000 1.0000
Ar2 Ar 1 0.00000 0.50000 0.66667 1.0000
Ar3 Ar 1 0.50000 0.50000 0.33333 1.0000
B1 B 1 0.20833 0.41667 0.50000 1.0000
B2 B 1 0.20833 0.79167 0.83333 1.0000
B3 B 1 0.58333 0.79167 0.16667 1.0000
B4 B 1 0.79167 0.58333 0.50000 1.0000
B5 B 1 0.79167 0.20833 0.83333 1.0000
B6 B 1 0.41667 0.20833 0.16667 1.0000
#End of data_8_WL1981

data_9_AMCSD0017665
_chemical_name_common		'beta-cristobalite'
_chemical_formula_structural	'SiO2'
_chemical_formula_sum		'Ar1 B2'
_citation_special_details	'original source structure doi: 10.1524/zkri.1925.62.1.189'
;
File: AMCSD0017665.cif.
;
_cell_length_a			4.61880
_cell_length_b			4.61880
_cell_length_c			4.61880
_cell_angle_alpha		90.00000
_cell_angle_beta		90.00000
_cell_angle_gamma		90.00000
_cell_volume			98.53449
_cell_formula_units_Z		8
_symmetry_space_group_name_H-M	'P 1'
_symmetry_Int_Tables_number	1
loop_
_symmetry_equiv_pos_site_id
_symmetry_equiv_pos_as_xyz
1 x,y,z
loop_
_atom_site_label
_atom_site_type_symbol
_atom_site_symmetry_multiplicity
_atom_site_fract_x
_atom_site_fract_y
_atom_site_fract_z
_atom_site_occupancy
Ar1 Ar 1 0.00000 0.00000 0.00000 1.0000
Ar2 Ar 1 0.00000 0.50000 0.50000 1.0000
Ar3 Ar 1 0.50000 0.50000 0.00000 1.0000
Ar4 Ar 1 0.50000 0.00000 0.50000 1.0000
Ar5 Ar 1 0.75000 0.25000 0.75000 1.0000
Ar6 Ar 1 0.25000 0.25000 0.25000 1.0000
Ar7 Ar 1 0.25000 0.75000 0.75000 1.0000
Ar8 Ar 1 0.75000 0.75000 0.25000 1.0000
B1 B 1 0.12500 0.12500 0.12500 1.0000
B2 B 1 0.87500 0.37500 0.62500 1.0000
B3 B 1 0.37500 0.62500 0.87500 1.0000
B4 B 1 0.62500 0.87500 0.37500 1.0000
B5 B 1 0.37500 0.87500 0.62500 1.0000
B6 B 1 0.87500 0.62500 0.37500 1.0000
B7 B 1 0.62500 0.37500 0.87500 1.0000
B8 B 1 0.12500 0.62500 0.62500 1.0000
B9 B 1 0.87500 0.87500 0.12500 1.0000
B10 B 1 0.37500 0.12500 0.37500 1.0000
B11 B 1 0.37500 0.37500 0.12500 1.0000
B12 B 1 0.87500 0.12500 0.87500 1.0000
B13 B 1 0.62500 0.12500 0.62500 1.0000
B14 B 1 0.12500 0.87500 0.87500 1.0000
B15 B 1 0.12500 0.37500 0.37500 1.0000
B16 B 1 0.62500 0.62500 0.12500 1.0000
#End of data_9_AMCSD0017665

